------------------------------------------------------------
          Invoking FHI-aims ...

          When using FHI-aims, please cite the following reference:

            Volker Blum, Ralf Gehrke, Felix Hanke, Paula Havu,
            Ville Havu, Xinguo Ren, Karsten Reuter, and Matthias Scheffler,
            'Ab Initio Molecular Simulations with Numeric Atom-Centered Orbitals',
            Computer Physics Communications 180, 2175-2196 (2009)

          In addition, many other developments in FHI-aims are likely important for
          your particular application. A partial list of references is given at the end of
          this file. Thank you for giving credit to the authors of these developments.

          For any questions about FHI-aims, please visit our slack channel at

            https://fhi-aims.slack.com

          and our main development and support site at

            https://aims-git.rz-berlin.mpg.de .

          The latter site, in particular, has a wiki to collect information, as well
          as an issue tracker to log discussions, suggest improvements, and report issues
          or bugs. https://aims-git.rz-berlin.mpg.de is also the main development site
          of the project and all new and updated code versions can be obtained there.
          Please send an email to aims-coordinators@fhi-berlin.mpg.de and we will add
          you to these sites. They are for you and everyone is welcome there.

------------------------------------------------------------



  Date     :  20220517, Time     :  115233.362
  Time zero on CPU 1             :   0.401660000000000E-01  s.
  Internal wall clock time zero  :           422020353.362  s.

  FHI-aims created a unique identifier for this run for later identification
  aims_uuid : C4FB5B89-C041-4215-A787-49C34C174384

  Build configuration of the current instance of FHI-aims
  -------------------------------------------------------
  FHI-aims version      : 210914
  Commit number         : GITDIR-NOTFOUND
  CMake host system     : Linux-3.10.0-693.17.1.el7.x86_64
  CMake version         : 3.21.1
  Fortran compiler      : /shared/ucl/apps/intel/2018.Update3/impi/2018.3.222/intel64/bin/mpiifort (Intel) version 18.0.3.20180410
  Fortran compiler flags: -O3 -ip -fp-model precise
  C compiler            : /shared/ucl/apps/intel/2018.Update3/compilers_and_libraries_2018.3.222/linux/bin/intel64/icc (Intel) version 18.0.3.20180410
  C compiler flags      : -O3 -ip -fp-model precise -std=gnu99
  ELPA2 kernel          : AVX2
  Using MPI
  Using ScaLAPACK
  Using LibXC
  Using i-PI
  Using RLSY
  Linking against: /shared/ucl/apps/intel/2019.Update5/compilers_and_libraries_2019.5.281/linux/mkl/lib/intel64/libmkl_intel_lp64.so
                   /shared/ucl/apps/intel/2019.Update5/compilers_and_libraries_2019.5.281/linux/mkl/lib/intel64/libmkl_sequential.so
                   /shared/ucl/apps/intel/2019.Update5/compilers_and_libraries_2019.5.281/linux/mkl/lib/intel64/libmkl_core.so
                   /shared/ucl/apps/intel/2019.Update5/compilers_and_libraries_2019.5.281/linux/mkl/lib/intel64/libmkl_blacs_intelmpi_lp64.so
                   /shared/ucl/apps/intel/2019.Update5/compilers_and_libraries_2019.5.281/linux/mkl/lib/intel64/libmkl_scalapack_lp64.so

  Using       24 parallel tasks.
  Task        0 on host node-k98i-010 reporting.
  Task        1 on host node-k98i-010 reporting.
  Task        2 on host node-k98i-010 reporting.
  Task        3 on host node-k98i-010 reporting.
  Task        4 on host node-k98i-010 reporting.
  Task        5 on host node-k98i-010 reporting.
  Task        6 on host node-k98i-010 reporting.
  Task        7 on host node-k98i-010 reporting.
  Task        8 on host node-k98i-010 reporting.
  Task        9 on host node-k98i-010 reporting.
  Task       10 on host node-k98i-010 reporting.
  Task       11 on host node-k98i-010 reporting.
  Task       12 on host node-k98i-010 reporting.
  Task       13 on host node-k98i-010 reporting.
  Task       14 on host node-k98i-010 reporting.
  Task       15 on host node-k98i-010 reporting.
  Task       16 on host node-k98i-010 reporting.
  Task       17 on host node-k98i-010 reporting.
  Task       18 on host node-k98i-010 reporting.
  Task       19 on host node-k98i-010 reporting.
  Task       20 on host node-k98i-010 reporting.
  Task       21 on host node-k98i-010 reporting.
  Task       22 on host node-k98i-010 reporting.
  Task       23 on host node-k98i-010 reporting.

  Performing system and environment tests:
  | Environment variable OMP_NUM_THREADS correctly set to 1.
  | Checking for ScaLAPACK...
  | Testing pdtran()...
  | All pdtran() tests passed.

  Obtaining array dimensions for all initial allocations:
  
  -----------------------------------------------------------------------
  Parsing control.in (first pass over file, find array dimensions only).
  The contents of control.in will be repeated verbatim below
  unless switched off by setting 'verbatim_writeout .false.' .
  in the first line of control.in .
  -----------------------------------------------------------------------
  
  #########################################################################################  Physical model
  #########################################################################################
  xc                 pbesol
  spin               none
  relativistic       atomic_zora scalar
  charge             0.0
  #  SCF convergence
  occupation_type    gaussian 0.01
  mixer              pulay
  n_max_pulay        10
  charge_mix_param   0.5
  sc_accuracy_rho    1E-5
  sc_accuracy_eev    1E-3
  sc_accuracy_etot   1E-6
  sc_accuracy_forces 1E-4
  sc_iter_limit      1500
  #  Relaxation
  #relax_geometry   bfgs 1.e-3
  
  ################################################################################
  #
  #  FHI-aims code project
  #  VB, Fritz-Haber Institut, 2009
  #
  #  Suggested "light" defaults for Al atom (to be pasted into control.in file)
  #  Be sure to double-check any results obtained with these settings for post-processing,
  #  e.g., with the "tight" defaults and larger basis sets.
  #
  ################################################################################
    species        Al
  #     global species definitions
      nucleus             13
      mass                26.9815386
  #
      l_hartree           4
  #
      cut_pot             3.5          1.5  1.0
      basis_dep_cutoff    1e-4
  #
      radial_base         41 5.0
      radial_multiplier   1
      angular_grids       specified
        division   0.6594  110
        division   0.8170  194
        division   0.9059  302
  #      division   1.0363  434
  #      division   1.1443  590
  #      division   1.2621  770
  #      division   2.8177  974
  #      outer_grid   974
        outer_grid   302
  ################################################################################
  #
  #  Definition of "minimal" basis
  #
  ################################################################################
  #     valence basis states
      valence      3  s   2.
      valence      3  p   1.
  #     ion occupancy
      ion_occ      3  s   1.
      ion_occ      2  p   6.
  ################################################################################
  #
  #  Suggested additional basis functions. For production calculations,
  #  uncomment them one after another (the most important basis functions are
  #  listed first).
  #
  #  Constructed for dimers: 2.0 A, 2.5 A, 3.0 A, 3.75 A, 4.5 A
  #
  ################################################################################
  #  "First tier" - improvements: -199.47 meV to -10.63 meV
       ionic 3 d auto
       ionic 3 p auto
  #     hydro 4 f 4.7
       ionic 3 s auto
  #  "Second tier" - improvements: -5.35 meV to -1.57 meV
  #     hydro 5 g 7
  #     hydro 3 d 6
  #     hydro 2 s 11.6
  #     hydro 2 p 0.9
  #  "Third tier" - improvements: -0.63 meV to -0.20 meV
  #     hydro 5 f 7.6
  #     hydro 4 p 7.2
  #     hydro 4 s 3.7
  #     hydro 4 d 7.6
  #  "Fourth tier" - improvements: -0.17 meV to -0.08 meV
  #     hydro 4 d 13.6
  #     hydro 5 g 11.2
  #     hydro 4 d 0.9
  #     hydro 1 s 0.4
  #     hydro 4 p 0.1
  #     hydro 5 f 9.8
  #  Further basis functions that fell out of the optimization - noise level...
  #     hydro 4 p 5
  
  ################################################################################
  #
  #  FHI-aims code project
  #  VB, Fritz-Haber Institut, 2009
  #
  #  Suggested "light" defaults for F atom (to be pasted into control.in file)
  #  Be sure to double-check any results obtained with these settings for post-processing,
  #  e.g., with the "tight" defaults and larger basis sets.
  #
  ################################################################################
    species        F
  #     global species definitions
      nucleus             9
      mass                18.9984032
  #
      l_hartree           4
  #
      cut_pot             3.5  1.5  1.0
      basis_dep_cutoff    1e-4
  #
      radial_base         37 5.0
      radial_multiplier   1
      angular_grids specified
        division   0.4014  110
        division   0.5291  194
        division   0.6019  302
  #      division   0.6814  434
  #      division   0.7989  590
  #      division   0.8965  770
  #      division   1.3427  974
  #      outer_grid   974
        outer_grid   302
  ################################################################################
  #
  #  Definition of "minimal" basis
  #
  ################################################################################
  #     valence basis states
      valence      2  s   2.
      valence      2  p   5.
  #     ion occupancy
      ion_occ      2  s   1.
      ion_occ      2  p   4.
  ################################################################################
  #
  #  Suggested additional basis functions. For production calculations,
  #  uncomment them one after another (the most important basis functions are
  #  listed first).
  #
  #  Constructed for dimers: 1.2 A, 1.418 A, 1.75 A, 2.25 A, 3.25 A
  #
  ################################################################################
  #  "First tier" - improvements: -149.44 meV to -45.88 meV
       hydro 2 p 1.7
       hydro 3 d 7.4
       hydro 3 s 6.8
  #  "Second tier" - improvements: -12.96 meV to -1.56 meV
  #     hydro 4 f 11.2
  #     ionic 2 p auto
  #     hydro 1 s 0.75
  #     hydro 4 d 8.8
  #     hydro 5 g 16.8
  #  "Third tier" - improvements: -0.58 meV to -0.05 meV
  #     hydro 3 p 6.2
  #     hydro 3 s 3.2
  #     hydro 4 f 9.6
  #     hydro 3 s 19.6
  #     hydro 4 d 8.6
  #     hydro 5 g 14.4
  # Further basis functions: -0.05 meV and below
  #     hydro 3 p 4.2
  
  -----------------------------------------------------------------------
  Completed first pass over input file control.in .
  -----------------------------------------------------------------------
  
  
  -----------------------------------------------------------------------
  Parsing geometry.in (first pass over file, find array dimensions only).
  The contents of geometry.in will be repeated verbatim below
  unless switched off by setting 'verbatim_writeout .false.' .
  in the first line of geometry.in .
  -----------------------------------------------------------------------
  
  atom -0.346298438 0.951268760 -1.817908736 Al
  atom -0.450924581 1.088417291 1.281395401 Al
  atom -3.026932103 0.490988878 -1.859431609 Al
  atom -3.535704655 0.333241336 -3.600080561 F
  atom -1.421234558 -0.601755304 -1.755596938 F
  atom -1.888090693 2.045164989 -1.977942761 F
  atom -2.065157377 0.858691855 0.452998509 F
  atom 0.638126416 1.076944497 -0.291090375 F
  atom -0.447702581 2.729258804 2.070403371 F
  atom 0.504381608 -0.306338871 1.969562158 F
  atom -4.273271367 0.195237326 -0.580495313 F
  atom 0.722795819 1.358487703 -3.236042844 F
  
  -----------------------------------------------------------------------
  Completed first pass over input file geometry.in .
  -----------------------------------------------------------------------
  

  Basic array size parameters:
  | Number of species                 :        2
  | Number of atoms                   :       12
  | Max. basis fn. angular momentum   :        2
  | Max. atomic/ionic basis occupied n:        3
  | Max. number of basis fn. types    :        3
  | Max. radial fns per species/type  :        5
  | Max. logarithmic grid size        :     1340
  | Max. radial integration grid size :       41
  | Max. angular integration grid size:      302
  | Max. angular grid division number :        8
  | Radial grid for Hartree potential :     1340
  | Number of spin channels           :        1

------------------------------------------------------------
          Reading file control.in.
------------------------------------------------------------
  XC: Using PBEsol gradient-corrected functionals.
  Spin treatment: No spin polarisation.
  Scalar relativistic treatment of kinetic energy: on-site free-atom approximation to ZORA.
  Charge =   0.000000E+00: Neutral system requested explicitly.
  Occupation type: Gaussian broadening, width =   0.100000E-01 eV.
  Using pulay charge density mixing.
  Pulay mixing - number of memorized iterations:   10
  Charge density mixing - mixing parameter:     0.5000
  Convergence accuracy of self-consistent charge density:  0.1000E-04
  Convergence accuracy of sum of eigenvalues:  0.1000E-02
  Convergence accuracy of total energy:  0.1000E-05
  Convergence accuracy of forces:  0.1000E-03
  Maximum number of s.-c. iterations  :  1500
 
  Reading configuration options for species Al                  .
  | Found nuclear charge :  13.0000
  | Found atomic mass :    26.9815386000000      amu
  | Found l_max for Hartree potential  :   4
  | Found cutoff potl. onset [A], width [A], scale factor :    3.50000    1.50000    1.00000
  | Threshold for basis-dependent cutoff potential is   0.100000E-03
  | Found data for basic radial integration grid :    41 points, outermost radius =    5.000 A
  | Found multiplier for basic radial grid :   1
  | Found angular grid specification: user-specified.
  | Specified grid contains     4 separate shells.
  | Check grid settings after all constraints further below.
  | Found free-atom valence shell :  3 s   2.000
  | Found free-atom valence shell :  3 p   1.000
  | Found free-ion valence shell :  3 s   1.000
  | Found free-ion valence shell :  2 p   6.000
  | Found ionic basis function :  3 d , default cutoff radius.
  | Found ionic basis function :  3 p , default cutoff radius.
  | Found ionic basis function :  3 s , default cutoff radius.
  Species Al                  : Missing cutoff potential type.
  Defaulting to exp(1/x)/(1-x)^2 type cutoff potential.
  Species Al: No 'logarithmic' tag. Using default grid for free atom:
  | Default logarithmic grid data [bohr] : 0.1000E-03 0.1000E+03 0.1012E+01
  | Will include ionic basis functions of  2.0-fold positive Al                   ion.
  Species Al: On-site basis accuracy parameter (for Gram-Schmidt orthonormalisation) not specified.
  Using default value basis_acc =  0.1000000E-03.
  Species Al                  : Using default innermost maximum threshold i_radial=  2 for radial functions.
  Species Al                  : Default cutoff onset for free atom density etc. : 0.35000000E+01 AA.
  Species Al                  : Basic radial grid will be enhanced according to radial_multiplier =   1, to contain    41 grid points.
 
  Reading configuration options for species F                   .
  | Found nuclear charge :   9.0000
  | Found atomic mass :    18.9984032000000      amu
  | Found l_max for Hartree potential  :   4
  | Found cutoff potl. onset [A], width [A], scale factor :    3.50000    1.50000    1.00000
  | Threshold for basis-dependent cutoff potential is   0.100000E-03
  | Found data for basic radial integration grid :    37 points, outermost radius =    5.000 A
  | Found multiplier for basic radial grid :   1
  | Found angular grid specification: user-specified.
  | Specified grid contains     4 separate shells.
  | Check grid settings after all constraints further below.
  | Found free-atom valence shell :  2 s   2.000
  | Found free-atom valence shell :  2 p   5.000
  | Found free-ion valence shell :  2 s   1.000
  | Found free-ion valence shell :  2 p   4.000
  | Found hydrogenic basis function :  2 p   1.700
  | Found hydrogenic basis function :  3 d   7.400
  | Found hydrogenic basis function :  3 s   6.800
  Species F                   : Missing cutoff potential type.
  Defaulting to exp(1/x)/(1-x)^2 type cutoff potential.
  Species F : No 'logarithmic' tag. Using default grid for free atom:
  | Default logarithmic grid data [bohr] : 0.1000E-03 0.1000E+03 0.1012E+01
  Species F : On-site basis accuracy parameter (for Gram-Schmidt orthonormalisation) not specified.
  Using default value basis_acc =  0.1000000E-03.
  Species F                   : Using default innermost maximum threshold i_radial=  2 for radial functions.
  Species F                   : Default cutoff onset for free atom density etc. : 0.35000000E+01 AA.
  Species F                   : Basic radial grid will be enhanced according to radial_multiplier =   1, to contain    37 grid points.
 
  Finished reading input file 'control.in'.
 
------------------------------------------------------------


------------------------------------------------------------
          Reading geometry description geometry.in.
------------------------------------------------------------
  | The smallest distance between any two atoms is         1.81011287 AA.
  | The first atom of this pair is atom number                      3 .
  | The second atom of this pair is atom number                    11 .
  Input structure read successfully.
  The structure contains       12 atoms,  and a total of        120.000 electrons.

  Input geometry:
  | No unit cell requested.
  | Atomic structure:
  |       Atom                x [A]            y [A]            z [A]
  |    1: Species Al           -0.34629844        0.95126876       -1.81790874
  |    2: Species Al           -0.45092458        1.08841729        1.28139540
  |    3: Species Al           -3.02693210        0.49098888       -1.85943161
  |    4: Species F            -3.53570465        0.33324134       -3.60008056
  |    5: Species F            -1.42123456       -0.60175530       -1.75559694
  |    6: Species F            -1.88809069        2.04516499       -1.97794276
  |    7: Species F            -2.06515738        0.85869186        0.45299851
  |    8: Species F             0.63812642        1.07694450       -0.29109038
  |    9: Species F            -0.44770258        2.72925880        2.07040337
  |   10: Species F             0.50438161       -0.30633887        1.96956216
  |   11: Species F            -4.27327137        0.19523733       -0.58049531
  |   12: Species F             0.72279582        1.35848770       -3.23604284

 
  Finished reading input file 'control.in'.
 

------------------------------------------------------------
          Reading geometry description geometry.in.
------------------------------------------------------------
 
  Consistency checks for stacksize environment parameter are next.
 
  | Maximum stacksize for task 0: unlimited
  | Maximum stacksize for task 1: unlimited
  | Maximum stacksize for task 2: unlimited
  | Maximum stacksize for task 3: unlimited
  | Maximum stacksize for task 4: unlimited
  | Maximum stacksize for task 5: unlimited
  | Maximum stacksize for task 6: unlimited
  | Maximum stacksize for task 7: unlimited
  | Maximum stacksize for task 8: unlimited
  | Maximum stacksize for task 9: unlimited
  | Maximum stacksize for task 10: unlimited
  | Maximum stacksize for task 11: unlimited
  | Maximum stacksize for task 12: unlimited
  | Maximum stacksize for task 13: unlimited
  | Maximum stacksize for task 14: unlimited
  | Maximum stacksize for task 15: unlimited
  | Maximum stacksize for task 16: unlimited
  | Maximum stacksize for task 17: unlimited
  | Maximum stacksize for task 18: unlimited
  | Maximum stacksize for task 19: unlimited
  | Maximum stacksize for task 20: unlimited
  | Maximum stacksize for task 21: unlimited
  | Maximum stacksize for task 22: unlimited
  | Maximum stacksize for task 23: unlimited
  | Current stacksize for task 0: unlimited
  | Current stacksize for task 1: unlimited
  | Current stacksize for task 2: unlimited
  | Current stacksize for task 3: unlimited
  | Current stacksize for task 4: unlimited
  | Current stacksize for task 5: unlimited
  | Current stacksize for task 6: unlimited
  | Current stacksize for task 7: unlimited
  | Current stacksize for task 8: unlimited
  | Current stacksize for task 9: unlimited
  | Current stacksize for task 10: unlimited
  | Current stacksize for task 11: unlimited
  | Current stacksize for task 12: unlimited
  | Current stacksize for task 13: unlimited
  | Current stacksize for task 14: unlimited
  | Current stacksize for task 15: unlimited
  | Current stacksize for task 16: unlimited
  | Current stacksize for task 17: unlimited
  | Current stacksize for task 18: unlimited
  | Current stacksize for task 19: unlimited
  | Current stacksize for task 20: unlimited
  | Current stacksize for task 21: unlimited
  | Current stacksize for task 22: unlimited
  | Current stacksize for task 23: unlimited
 
  Consistency checks for the contents of control.in are next.
 
  MPI_IN_PLACE appears to work with this MPI implementation.
  | Keeping use_mpi_in_place .true. (see manual).
  Target number of points in a grid batch is not set. Defaulting to  100
  Method for grid partitioning is not set. Defaulting to parallel hash+maxmin partitioning.
  Batch size limit is not set. Defaulting to    200
  By default, will store active basis functions for each batch.
  If in need of memory, prune_basis_once .false. can be used to disable this option.
  communication_type for Hartree potential was not specified.
  Defaulting to calc_hartree .
  Pulay mixer: Number of initial linear mixing iterations not set.
  Defaulting to    0 iterations.
  Work space size for distributed Hartree potential not set.
  Defaulting to   0.200000E+03 MB.
  Algorithm-dependent basis array size parameters:
  | n_max_pulay                         :       10
  Presetting      1001 iterations before the initial mixing cycle
  is restarted anyway using the sc_init_iter criterion / keyword.
  Presetting a factor      1.000 between actual scf density residual
  and density convergence criterion sc_accuracy_rho below which sc_init_iter
  takes no effect.
  Geometry relaxation not requested: no relaxation will be performed.
  Forces evaluation will include force correction term due to incomplete self-consistency (default).
  Handling of forces: Unphysical translation and rotation will be removed from forces.
  No accuracy limit for integral partition fn. given. Defaulting to  0.1000E-14.
  No threshold value for u(r) in integrations given. Defaulting to  0.1000E-05.
  No accuracy for occupation numbers given. Defaulting to  0.1000E-12.
  No threshold value for occupation numbers given. Defaulting to  0.0000E+00.
  No accuracy for fermi level given. Defaulting to  0.1000E-19.
  Maximum # of iterations to find E_F not set. Defaulting to  200.
  Preferred method for the eigenvalue solver ('KS_method') not specified in 'control.in'.
  Calling BLACS routine to test compilation state
  Since ScaLAPACK support is enabled, defaulting to ELPA (via ELSI).
  Will not use alltoall communication since running on < 1024 CPUs.
  Threshold for basis singularities not set.
  Default threshold for basis singularities:  0.1000E-04
  partition_type (choice of integration weights) for integrals was not specified.
  | Using a version of the partition function of Stratmann and coworkers ('stratmann_sparse').
  | At each grid point, the set of atoms used to build the partition table is smoothly restricted to
  | only those atoms whose free-atom density would be non-zero at that grid point.
  Partitioning for Hartree potential was not defined. Using partition_type for integrals.
  | Adjusted default value of keyword multip_moments_threshold to:       0.10000000E-11
  | This value may affect high angular momentum components of the Hartree potential in periodic systems.
  No q(lm)/r^(l+1) cutoff set for long-range Hartree potential.
  | Using default value of  0.100000E-09 .
  | Verify using the multipole_threshold keyword.
  Defaulting to new monopole extrapolation.
  Density update method: automatic selection selected.
  Charge integration errors on the 3D integration grid will be compensated
  by explicit normalization and distribution of residual charges.
  Use the "compensate_multipole_errors" flag to change this behaviour.
  Set 'collect_eigenvectors' to be '.true.' for use_density_matrix .false.
 
  Consistency checks for the contents of geometry.in are next.
 
  Number of empty states per atom not set in control.in - providing a guess from actual geometry.
  | Total number of empty states used during s.c.f. cycle:       36
  If you use a very high smearing, use empty_states (per atom!) in control.in to increase this value.

  Structure-dependent array size parameters: 
  | Maximum number of distinct radial functions  :       14
  | Maximum number of basis functions            :      180
  | Number of Kohn-Sham states (occupied + empty):       96
------------------------------------------------------------

------------------------------------------------------------
          Preparing all fixed parts of the calculation.
------------------------------------------------------------
  Determining machine precision:
    2.225073858507201E-308
  Setting up grids for atomic and cluster calculations.

  Creating wave function, potential, and density for free atoms.

  Species: Al

  List of occupied orbitals and eigenvalues:
    n    l              occ      energy [Ha]    energy [eV]
    1    0           2.0000       -55.621123     -1513.5278
    2    0           2.0000        -3.957030      -107.6763
    3    0           2.0000        -0.272233        -7.4078
    2    1           6.0000        -2.540949       -69.1427
    3    1           1.0000        -0.083300        -2.2667


  Species: F

  List of occupied orbitals and eigenvalues:
    n    l              occ      energy [Ha]    energy [eV]
    1    0           2.0000       -24.399611      -663.9472
    2    0           2.0000        -1.098702       -29.8972
    2    1           5.0000        -0.408210       -11.1080


  Adding cutoff potential to free-atom effective potential.
  Creating fixed part of basis set: Ionic, confined, hydrogenic.
 
  Al                   ion:

  List of free ionic orbitals and eigenvalues:
    n    l      energy [Ha]    energy [eV]
    1    0       -56.418846     -1535.2349
    2    0        -4.732717      -128.7838
    3    0        -0.872690       -23.7471
    2    1        -3.317230       -90.2664


  List of ionic basis orbitals and eigenvalues:
    n    l      energy [Ha]    energy [eV]    outer radius [A]
    3    2        -0.346815        -9.4373       4.594041
    3    1        -0.631870       -17.1940       4.538221
    3    0        -0.872657       -23.7462       4.538221

 
  F                    hydrogenic:
 
  List of hydrogenic basis orbitals: 
    n    l      effective z      eigenvalue [eV]  inner max. [A]     outer max. [A]     outer radius [A]   
    2    1         1.700000        -9.7616           1.243167           1.243167           4.598524
    3    2         7.400000       -82.7828           0.642437           0.642437           3.305741
    3    0         6.800000       -69.9026           0.057798           1.022307           3.781556
 
  Creating atomic-like basis functions for current effective potential.

  Species Al                  :

  List of atomic basis orbitals and eigenvalues:
    n    l      energy [Ha]    energy [eV]    outer radius [A]
    1    0       -55.621123     -1513.5278       0.850197
    2    0        -3.957030      -107.6763       3.144911
    3    0        -0.272233        -7.4078       4.594041
    2    1        -2.540949       -69.1427       3.731966
    3    1        -0.083300        -2.2667       4.594041


  Species F                   :

  List of atomic basis orbitals and eigenvalues:
    n    l      energy [Ha]    energy [eV]    outer radius [A]
    1    0       -24.399611      -663.9472       1.258458
    2    0        -1.098702       -29.8972       4.325857
    2    1        -0.408210       -11.1080       4.487453

  Assembling full basis from fixed parts.
  | Species Al :   atomic orbital   1 s accepted.
  | Species Al :   atomic orbital   2 s accepted.
  | Species Al :    ionic orbital   3 s accepted.
  | Species Al :   atomic orbital   3 s accepted.
  | Species Al :   atomic orbital   2 p accepted.
  | Species Al :    ionic orbital   3 p accepted.
  | Species Al :   atomic orbital   3 p accepted.
  | Species Al :    ionic orbital   3 d accepted.
  | Species F :   atomic orbital   1 s accepted.
  | Species F :    hydro orbital   3 s accepted.
  | Species F :   atomic orbital   2 s accepted.
  | Species F :   atomic orbital   2 p accepted.
  | Species F :    hydro orbital   2 p accepted.
  | Species F :    hydro orbital   3 d accepted.
 
  Basis size parameters after reduction:
  | Total number of radial functions:       14
  | Total number of basis functions :      180
 
  Per-task memory consumption for arrays in subroutine allocate_ext:
  |           4.807768MB.
  Testing on-site integration grid accuracy.
  |  Species  Function  <phi|h_atom|phi> (log., in eV)  <phi|h_atom|phi> (rad., in eV)
           1        1              -1513.5277717935              -1513.5271881332
           1        2               -107.6762691836               -107.6762662489
           1        3                 -6.9467474784                 -6.9471269649
           1        4                  5.5771951849                  5.4862107220 ***
           1        5                -69.1427313144                -69.1427312731
           1        6                 -1.5197375330                 -1.5230432022
           1        7                  6.8210948310                  6.5529872240 ***
           1        8                  4.3216540965                  4.2851170187 ***
           2        9               -663.9471986398               -663.9470363334
           2       10                 16.8514011578                 16.8512525338
           2       11                -28.4490593856                -28.4490661472
           2       12                -11.1080115307                -11.1080620173
           2       13                  7.1940182175                  7.1685154137
           2       14                 44.8544281765                 44.8543763625
 * Note: Onsite integrals marked "***" above are less accurate than
 * onsite_accuracy_threshold =    0.03000 eV. Usually, this is harmless.
 * When in doubt, tighten the "radial" and/or "radial_multiplier" flags to check.

  Preparing densities etc. for the partition functions (integrals / Hartree potential).

  Preparations completed.
  max(cpu_time)          :      0.184 s.
  Wall clock time (cpu1) :      0.184 s.
------------------------------------------------------------

------------------------------------------------------------
          Begin self-consistency loop: Initialization.

          Date     :  20220517, Time     :  115233.591
------------------------------------------------------------

  Initializing index lists of integration centers etc. from given atomic structure:
  | Number of centers in hartree potential         :        12
  | Number of centers in hartree multipole         :        12
  | Number of centers in electron density summation:        12
  | Number of centers in basis integrals           :        12
  | Number of centers in integrals                 :        12
  | Number of centers in hamiltonian               :        12
  * Using 24 tasks for Scalapack Eigenvalue solver.
  Detailed listing of tasks and assigned k-points:
  (for non-periodic systems, the "k-point" denotes an internal label only)
   Task     0 k-point     1 on node-k98i-010
   Task     1 k-point     1 on node-k98i-010
   Task     2 k-point     1 on node-k98i-010
   Task     3 k-point     1 on node-k98i-010
   Task     4 k-point     1 on node-k98i-010
   Task     5 k-point     1 on node-k98i-010
   Task     6 k-point     1 on node-k98i-010
   Task     7 k-point     1 on node-k98i-010
   Task     8 k-point     1 on node-k98i-010
   Task     9 k-point     1 on node-k98i-010
   Task    10 k-point     1 on node-k98i-010
   Task    11 k-point     1 on node-k98i-010
   Task    12 k-point     1 on node-k98i-010
   Task    13 k-point     1 on node-k98i-010
   Task    14 k-point     1 on node-k98i-010
   Task    15 k-point     1 on node-k98i-010
   Task    16 k-point     1 on node-k98i-010
   Task    17 k-point     1 on node-k98i-010
   Task    18 k-point     1 on node-k98i-010
   Task    19 k-point     1 on node-k98i-010
   Task    20 k-point     1 on node-k98i-010
   Task    21 k-point     1 on node-k98i-010
   Task    22 k-point     1 on node-k98i-010
   Task    23 k-point     1 on node-k98i-010
  Tasks:    24 split into      6 X      4 BLACS grid
  Calculating block size based on n_basis =          180  max_nprow =            6  max_npcol =            4
  ScaLAPACK block size set to:           16
  Allocating        0.012 MB for ovlp
  Allocating        0.012 MB for ham
  Allocating        0.012 MB for eigenvec
  Required Scalapack workspace - INTEGER:            1  REAL:             1
  Partitioning the integration grid into batches with parallel hashing+maxmin method.
  | Number of batches:     1052
  | Maximal batch size:     186
  | Minimal batch size:      21
  | Average batch size:      87.376
  | Standard deviation of batch sizes:      28.728

  Integration load balanced across    24 MPI tasks.
  Work distribution over tasks is as follows:
  Task     0 has       3840 integration points.
  Task     1 has       3836 integration points.
  Task     2 has       3791 integration points.
  Task     3 has       3792 integration points.
  Task     4 has       3829 integration points.
  Task     5 has       3795 integration points.
  Task     6 has       3800 integration points.
  Task     7 has       3840 integration points.
  Task     8 has       3804 integration points.
  Task     9 has       3945 integration points.
  Task    10 has       3867 integration points.
  Task    11 has       3844 integration points.
  Task    12 has       3775 integration points.
  Task    13 has       3784 integration points.
  Task    14 has       3806 integration points.
  Task    15 has       3836 integration points.
  Task    16 has       3800 integration points.
  Task    17 has       3774 integration points.
  Task    18 has       3799 integration points.
  Task    19 has       3830 integration points.
  Task    20 has       3940 integration points.
  Task    21 has       3929 integration points.
  Task    22 has       3863 integration points.
  Task    23 has       3801 integration points.
  Initializing partition tables, free-atom densities, potentials, etc. across the integration grid (initialize_grid_storage).
  | initialize_grid_storage: Actual outermost partition radius vs. multipole_radius_free
  | (-- VB: in principle, multipole_radius_free should be larger, hence this output)
  | Species        1: Confinement radius =              4.999999999999999 AA, multipole_radius_free =              5.004487022111096 AA.
  | Species        1: outer_partition_radius set to              5.004487022111096 AA .
  | Species        2: Confinement radius =              4.999999999999999 AA, multipole_radius_free =              5.009370088163274 AA.
  | Species        2: outer_partition_radius set to              5.009370088163274 AA .
  | The sparse table of interatomic distances needs          1.64 kbyte instead of         1.15 kbyte of memory.
  | Using the partition_type stratmann_smoother will reduce your memory usage.
  | Net number of integration points:    91920
  | of which are non-zero points    :    85679
  Renormalizing the initial density to the exact electron count on the 3D integration grid.
  | Initial density: Formal number of electrons (from input files) :     120.0000000000
  | Integrated number of electrons on 3D grid     :     119.9999255523
  | Charge integration error                      :      -0.0000744477
  | Normalization factor for density and gradient :       1.0000006204
  Renormalizing the free-atom superposition density to the exact electron count on the 3D integration grid.
  | Formal number of electrons (from input files) :     120.0000000000
  | Integrated number of electrons on 3D grid     :     119.9999255523
  | Charge integration error                      :      -0.0000744477
  | Normalization factor for density and gradient :       1.0000006204
  Obtaining max. number of non-zero basis functions in each batch (get_n_compute_maxes).
  | Maximal number of non-zero basis functions:      165 in task     0
  | Maximal number of non-zero basis functions:      167 in task     1
  | Maximal number of non-zero basis functions:      166 in task     2
  | Maximal number of non-zero basis functions:      166 in task     3
  | Maximal number of non-zero basis functions:      165 in task     4
  | Maximal number of non-zero basis functions:      159 in task     5
  | Maximal number of non-zero basis functions:      172 in task     6
  | Maximal number of non-zero basis functions:      160 in task     7
  | Maximal number of non-zero basis functions:      165 in task     8
  | Maximal number of non-zero basis functions:      159 in task     9
  | Maximal number of non-zero basis functions:      165 in task    10
  | Maximal number of non-zero basis functions:      164 in task    11
  | Maximal number of non-zero basis functions:      165 in task    12
  | Maximal number of non-zero basis functions:      163 in task    13
  | Maximal number of non-zero basis functions:      166 in task    14
  | Maximal number of non-zero basis functions:      160 in task    15
  | Maximal number of non-zero basis functions:      161 in task    16
  | Maximal number of non-zero basis functions:      172 in task    17
  | Maximal number of non-zero basis functions:      165 in task    18
  | Maximal number of non-zero basis functions:      166 in task    19
  | Maximal number of non-zero basis functions:      165 in task    20
  | Maximal number of non-zero basis functions:      172 in task    21
  | Maximal number of non-zero basis functions:      159 in task    22
  | Maximal number of non-zero basis functions:      161 in task    23
  Selecting the method for density update.
  Loop over occupied states selected for charge density update.
  Allocating        0.132 MB for KS_eigenvector
  Integrating Hamiltonian matrix: batch-based integration.
  Time summed over all CPUs for integration: real work        0.701 s, elapsed        0.729 s
  Integrating overlap matrix.
  Time summed over all CPUs for integration: real work        0.276 s, elapsed        0.294 s
  Deallocating overlap matrix.

  Updating Kohn-Sham eigenvalues and eigenvectors using ELSI and the ELPA eigensolver.
  Overlap matrix is not singular
  | Lowest and highest eigenvalues :  0.3581E-02,  0.5205E+01
  Finished singularity check of overlap matrix
  | Time :     0.004 s
  Starting ELPA eigensolver
  Finished Cholesky decomposition
  | Time :     0.001 s
  Finished transformation to standard eigenproblem
  | Time :     0.001 s
  Finished solving standard eigenproblem
  | Time :     0.004 s
  Finished back-transformation of eigenvectors
  | Time :     0.000 s

  Obtaining occupation numbers and chemical potential using ELSI.
  | Chemical potential (Fermi level):    -7.83492571 eV
  Writing Kohn-Sham eigenvalues.

  State    Occupation    Eigenvalue [Ha]    Eigenvalue [eV]
      1       2.00000         -55.484784        -1509.81779
      2       2.00000         -55.484165        -1509.80095
      3       2.00000         -55.483031        -1509.77008
      4       2.00000         -24.369130         -663.11776
      5       2.00000         -24.359752         -662.86257
      6       2.00000         -24.359246         -662.84881
      7       2.00000         -24.344397         -662.44475
      8       2.00000         -24.341315         -662.36088
      9       2.00000         -24.340081         -662.32731
     10       2.00000         -24.340023         -662.32573
     11       2.00000         -24.339867         -662.32149
     12       2.00000         -24.339524         -662.31215
     13       2.00000          -3.950164         -107.48942
     14       2.00000          -3.949207         -107.46340
     15       2.00000          -3.947959         -107.42943
     16       2.00000          -2.543005          -69.19868
     17       2.00000          -2.542285          -69.17909
     18       2.00000          -2.542051          -69.17274
     19       2.00000          -2.541190          -69.14930
     20       2.00000          -2.540872          -69.14065
     21       2.00000          -2.540452          -69.12921
     22       2.00000          -2.540079          -69.11908
     23       2.00000          -2.539840          -69.11255
     24       2.00000          -2.538958          -69.08855
     25       2.00000          -1.192820          -32.45828
     26       2.00000          -1.185044          -32.24670
     27       2.00000          -1.174914          -31.97104
     28       2.00000          -1.158205          -31.51637
     29       2.00000          -1.150036          -31.29407
     30       2.00000          -1.148523          -31.25291
     31       2.00000          -1.147908          -31.23615
     32       2.00000          -1.146820          -31.20655
     33       2.00000          -1.146504          -31.19796
     34       2.00000          -0.558541          -15.19867
     35       2.00000          -0.546395          -14.86816
     36       2.00000          -0.541910          -14.74611
     37       2.00000          -0.517491          -14.08166
     38       2.00000          -0.515146          -14.01783
     39       2.00000          -0.511721          -13.92464
     40       2.00000          -0.497815          -13.54623
     41       2.00000          -0.495988          -13.49653
     42       2.00000          -0.494334          -13.45151
     43       2.00000          -0.487734          -13.27193
     44       2.00000          -0.483592          -13.15920
     45       2.00000          -0.483364          -13.15300
     46       2.00000          -0.479109          -13.03722
     47       2.00000          -0.478444          -13.01913
     48       2.00000          -0.477566          -12.99524
     49       2.00000          -0.458397          -12.47362
     50       2.00000          -0.456365          -12.41833
     51       2.00000          -0.454211          -12.35971
     52       2.00000          -0.452248          -12.30630
     53       2.00000          -0.452014          -12.29991
     54       2.00000          -0.451129          -12.27585
     55       2.00000          -0.450162          -12.24953
     56       2.00000          -0.448542          -12.20544
     57       2.00000          -0.447813          -12.18562
     58       2.00000          -0.445891          -12.13332
     59       2.00000          -0.444278          -12.08941
     60       2.00000          -0.441303          -12.00846
     61       0.00000          -0.143133           -3.89484
     62       0.00000          -0.098333           -2.67578
     63       0.00000          -0.079917           -2.17465
     64       0.00000          -0.035120           -0.95566
     65       0.00000          -0.012341           -0.33581
     66       0.00000          -0.003524           -0.09589
     67       0.00000           0.005542            0.15079
     68       0.00000           0.024627            0.67012
     69       0.00000           0.040584            1.10435
     70       0.00000           0.051084            1.39006
     71       0.00000           0.076697            2.08703
     72       0.00000           0.102336            2.78471
     73       0.00000           0.145434            3.95746
     74       0.00000           0.161869            4.40468
     75       0.00000           0.164777            4.48381
     76       0.00000           0.172996            4.70746
     77       0.00000           0.179407            4.88191
     78       0.00000           0.184565            5.02226
     79       0.00000           0.193390            5.26242
     80       0.00000           0.200762            5.46302
     81       0.00000           0.208035            5.66091
     82       0.00000           0.216612            5.89430
     83       0.00000           0.226823            6.17216
     84       0.00000           0.239073            6.50551
     85       0.00000           0.242317            6.59377
     86       0.00000           0.243515            6.62639
     87       0.00000           0.273719            7.44829
     88       0.00000           0.275810            7.50517
     89       0.00000           0.287777            7.83081
     90       0.00000           0.297066            8.08358
     91       0.00000           0.309482            8.42145
     92       0.00000           0.317637            8.64333
     93       0.00000           0.338223            9.20351
     94       0.00000           0.347407            9.45343
     95       0.00000           0.363846            9.90074
     96       0.00000           0.366580            9.97515

  Highest occupied state (VBM) at    -12.00845596 eV
  | Occupation number:      2.00000000

  Lowest unoccupied state (CBM) at    -3.89484242 eV
  | Occupation number:      0.00000000

  Overall HOMO-LUMO gap:      8.11361354 eV.
  Calculating total energy contributions from superposition of free atom densities.

  Total energy components:
  | Sum of eigenvalues            :        -887.44730654 Ha      -24148.66988188 eV
  | XC energy correction          :        -144.31250867 Ha       -3926.94316158 eV
  | XC potential correction       :         187.90208559 Ha        5113.07589942 eV
  | Free-atom electrostatic energy:        -781.49696091 Ha      -21265.61428883 eV
  | Hartree energy correction     :           0.00000000 Ha           0.00000000 eV
  | Entropy correction            :           0.00000000 Ha           0.00000000 eV
  | ---------------------------
  | Total energy                  :       -1625.35469053 Ha      -44228.15143286 eV
  | Total energy, T -> 0          :       -1625.35469053 Ha      -44228.15143286 eV  <-- do not rely on this value for anything but (periodic) metals
  | Electronic free energy        :       -1625.35469053 Ha      -44228.15143286 eV

  Derived energy quantities:
  | Kinetic energy                :        1627.55459696 Ha       44288.01393252 eV
  | Electrostatic energy          :       -3108.59677882 Ha      -84589.22220380 eV
  | Energy correction for multipole
  | error in Hartree potential    :           0.00000000 Ha           0.00000000 eV
  | Sum of eigenvalues per atom                           :       -2012.38915682 eV
  | Total energy (T->0) per atom                          :       -3685.67928607 eV  <-- do not rely on this value for anything but (periodic) metals
  | Electronic free energy per atom                       :       -3685.67928607 eV
  Initialize hartree_potential_storage
  Max. number of atoms included in rho_multipole:           12

  End scf initialization - timings             :  max(cpu_time)    wall_clock(cpu1)
  | Time for scf. initialization                :        0.112 s           0.113 s
  | Boundary condition initialization           :        0.000 s           0.001 s
  | Integration                                 :        0.044 s           0.044 s
  | Solution of K.-S. eqns.                     :        0.011 s           0.011 s
  | Grid partitioning                           :        0.034 s           0.034 s
  | Preloading free-atom quantities on grid     :        0.016 s           0.016 s
  | Free-atom superposition energy              :        0.005 s           0.005 s
  | Total energy evaluation                     :        0.000 s           0.000 s

  Partial memory accounting:
  | Current value for overall tracked memory usage:
  |   Minimum:        0.273 MB (on task 23)
  |   Maximum:        0.292 MB (on task  0)
  |   Average:        0.287 MB
  | Peak value for overall tracked memory usage:
  |   Minimum:        1.276 MB (on task 22 after allocating wave)
  |   Maximum:        1.378 MB (on task  6 after allocating wave)
  |   Average:        1.322 MB
  | Largest tracked array allocation so far:
  |   Minimum:        0.226 MB (H_times_psi on task  5)
  |   Maximum:        0.456 MB (all_coords on task 10)
  |   Average:        0.259 MB
  Note:  These values currently only include a subset of arrays which are explicitly tracked.
  The "true" memory usage will be greater.
------------------------------------------------------------
  Evaluating new KS density.
  Integration grid: deviation in total charge (<rho> - N_e) =   1.421085E-14

  Time for density update prior                :  max(cpu_time)    wall_clock(cpu1)
  | self-consistency iterative process          :        0.029 s           0.029 s

------------------------------------------------------------
          Begin self-consistency iteration #    1

  Date     :  20220517, Time     :  115233.733
------------------------------------------------------------
  Pulay mixing of updated and previous charge densities.
  Renormalizing the density to the exact electron count on the 3D integration grid.
  | Formal number of electrons (from input files) :     120.0000000000
  | Integrated number of electrons on 3D grid     :     120.0000000000
  | Charge integration error                      :      -0.0000000000
  | Normalization factor for density and gradient :       1.0000000000

  Evaluating partitioned Hartree potential by multipole expansion.
  | Original multipole sum: apparent total charge =  -0.118782E-12
  | Sum of charges compensated after spline to logarithmic grids =   0.124127E-03
  | Analytical far-field extrapolation by fixed multipoles:
  | Hartree multipole sum: apparent total charge =  -0.117036E-12
  Summing up the Hartree potential.
  Time summed over all CPUs for potential: real work        0.382 s, elapsed        0.397 s
  | RMS charge density error from multipole expansion :   0.107245E-01

  Integrating Hamiltonian matrix: batch-based integration.
  Time summed over all CPUs for integration: real work        0.666 s, elapsed        0.711 s

  Updating Kohn-Sham eigenvalues and eigenvectors using ELSI and the ELPA eigensolver.
  Starting ELPA eigensolver
  Finished transformation to standard eigenproblem
  | Time :     0.000 s
  Finished solving standard eigenproblem
  | Time :     0.004 s
  Finished back-transformation of eigenvectors
  | Time :     0.000 s

  Obtaining occupation numbers and chemical potential using ELSI.
  | Chemical potential (Fermi level):    -7.85223861 eV
  Writing Kohn-Sham eigenvalues.

  State    Occupation    Eigenvalue [Ha]    Eigenvalue [eV]
      1       2.00000         -55.679910        -1515.12745
      2       2.00000         -55.644319        -1514.15897
      3       2.00000         -55.624822        -1513.62842
      4       2.00000         -24.255565         -660.02751
      5       2.00000         -24.250282         -659.88374
      6       2.00000         -24.244805         -659.73471
      7       2.00000         -24.149479         -657.14076
      8       2.00000         -24.081569         -655.29282
      9       2.00000         -24.066631         -654.88636
     10       2.00000         -24.062863         -654.78382
     11       2.00000         -24.062259         -654.76739
     12       2.00000         -24.058674         -654.66982
     13       2.00000          -4.118542         -112.07124
     14       2.00000          -4.082577         -111.09258
     15       2.00000          -4.064753         -110.60755
     16       2.00000          -2.711912          -73.79487
     17       2.00000          -2.711470          -73.78284
     18       2.00000          -2.710273          -73.75029
     19       2.00000          -2.676243          -72.82428
     20       2.00000          -2.675879          -72.81436
     21       2.00000          -2.673541          -72.75074
     22       2.00000          -2.658875          -72.35166
     23       2.00000          -2.657274          -72.30811
     24       2.00000          -2.656002          -72.27349
     25       2.00000          -1.176837          -32.02336
     26       2.00000          -1.169712          -31.82947
     27       2.00000          -1.156299          -31.46448
     28       2.00000          -1.079797          -29.38278
     29       2.00000          -1.027922          -27.97119
     30       2.00000          -1.014920          -27.61737
     31       2.00000          -1.010431          -27.49523
     32       2.00000          -1.008479          -27.44210
     33       2.00000          -1.005671          -27.36569
     34       2.00000          -0.558864          -15.20745
     35       2.00000          -0.541664          -14.73942
     36       2.00000          -0.530266          -14.42928
     37       2.00000          -0.508414          -13.83465
     38       2.00000          -0.500922          -13.63079
     39       2.00000          -0.477720          -12.99943
     40       2.00000          -0.472360          -12.85357
     41       2.00000          -0.462207          -12.57728
     42       2.00000          -0.452257          -12.30653
     43       2.00000          -0.443071          -12.05657
     44       2.00000          -0.398364          -10.84003
     45       2.00000          -0.390217          -10.61834
     46       2.00000          -0.388172          -10.56269
     47       2.00000          -0.386815          -10.52577
     48       2.00000          -0.380066          -10.34211
     49       2.00000          -0.359467           -9.78159
     50       2.00000          -0.354128           -9.63632
     51       2.00000          -0.338585           -9.21336
     52       2.00000          -0.336746           -9.16333
     53       2.00000          -0.327988           -8.92500
     54       2.00000          -0.327282           -8.90580
     55       2.00000          -0.323888           -8.81343
     56       2.00000          -0.321979           -8.76150
     57       2.00000          -0.317031           -8.62684
     58       2.00000          -0.312854           -8.51319
     59       2.00000          -0.309493           -8.42174
     60       2.00000          -0.306474           -8.33959
     61       0.00000          -0.161679           -4.39951
     62       0.00000          -0.092477           -2.51643
     63       0.00000          -0.087283           -2.37510
     64       0.00000          -0.063804           -1.73620
     65       0.00000          -0.030621           -0.83325
     66       0.00000          -0.024200           -0.65851
     67       0.00000          -0.004775           -0.12995
     68       0.00000           0.012130            0.33006
     69       0.00000           0.032810            0.89281
     70       0.00000           0.045497            1.23803
     71       0.00000           0.052721            1.43462
     72       0.00000           0.086929            2.36547
     73       0.00000           0.133056            3.62063
     74       0.00000           0.155801            4.23957
     75       0.00000           0.158623            4.31635
     76       0.00000           0.166325            4.52594
     77       0.00000           0.182419            4.96389
     78       0.00000           0.186424            5.07286
     79       0.00000           0.189124            5.14633
     80       0.00000           0.201795            5.49113
     81       0.00000           0.203673            5.54223
     82       0.00000           0.214323            5.83202
     83       0.00000           0.217321            5.91361
     84       0.00000           0.223882            6.09215
     85       0.00000           0.229517            6.24549
     86       0.00000           0.231565            6.30119
     87       0.00000           0.253000            6.88447
     88       0.00000           0.264236            7.19024
     89       0.00000           0.272678            7.41995
     90       0.00000           0.291734            7.93848
     91       0.00000           0.302290            8.22573
     92       0.00000           0.320435            8.71949
     93       0.00000           0.333578            9.07712
     94       0.00000           0.349644            9.51430
     95       0.00000           0.364848            9.92803
     96       0.00000           0.368250           10.02059

  Highest occupied state (VBM) at     -8.33958554 eV
  | Occupation number:      2.00000000

  Lowest unoccupied state (CBM) at    -4.39950822 eV
  | Occupation number:      0.00000000

  Overall HOMO-LUMO gap:      3.94007732 eV.

  Total energy components:
  | Sum of eigenvalues            :        -882.11175455 Ha      -24003.48212506 eV
  | XC energy correction          :        -145.65881299 Ha       -3963.57796604 eV
  | XC potential correction       :         189.67191148 Ha        5161.23531223 eV
  | Free-atom electrostatic energy:        -781.49696091 Ha      -21265.61428883 eV
  | Hartree energy correction     :          -5.53596314 Ha        -150.64122165 eV
  | Entropy correction            :           0.00000000 Ha           0.00000000 eV
  | ---------------------------
  | Total energy                  :       -1625.13158011 Ha      -44222.08028935 eV
  | Total energy, T -> 0          :       -1625.13158011 Ha      -44222.08028935 eV  <-- do not rely on this value for anything but (periodic) metals
  | Electronic free energy        :       -1625.13158011 Ha      -44222.08028935 eV

  Derived energy quantities:
  | Kinetic energy                :        1633.98604879 Ha       44463.02264138 eV
  | Electrostatic energy          :       -3113.45881591 Ha      -84721.52496469 eV
  | Energy correction for multipole
  | error in Hartree potential    :           0.04006953 Ha           1.09034741 eV
  | Sum of eigenvalues per atom                           :       -2000.29017709 eV
  | Total energy (T->0) per atom                          :       -3685.17335745 eV  <-- do not rely on this value for anything but (periodic) metals
  | Electronic free energy per atom                       :       -3685.17335745 eV
  Evaluating new KS density.
  Integration grid: deviation in total charge (<rho> - N_e) =   4.263256E-14

  Self-consistency convergence accuracy:
  | Change of charge density      :  0.6048E+00
  | Change of sum of eigenvalues  :  0.1452E+03 eV
  | Change of total energy        :  0.6071E+01 eV


------------------------------------------------------------
  End self-consistency iteration #     1       :  max(cpu_time)    wall_clock(cpu1)
  | Time for this iteration                     :        0.081 s           0.081 s
  | Charge density update                       :        0.027 s           0.027 s
  | Density mixing                              :        0.001 s           0.000 s
  | Hartree multipole update                    :        0.001 s           0.002 s
  | Hartree multipole summation                 :        0.017 s           0.017 s
  | Integration                                 :        0.030 s           0.030 s
  | Solution of K.-S. eqns.                     :        0.004 s           0.004 s
  | Total energy evaluation                     :        0.000 s           0.000 s

  Partial memory accounting:
  | Current value for overall tracked memory usage:
  |   Minimum:        0.273 MB (on task 23)
  |   Maximum:        0.292 MB (on task  0)
  |   Average:        0.287 MB
  | Peak value for overall tracked memory usage:
  |   Minimum:        1.276 MB (on task 22 after allocating wave)
  |   Maximum:        1.378 MB (on task  6 after allocating wave)
  |   Average:        1.322 MB
  | Largest tracked array allocation so far:
  |   Minimum:        0.677 MB (gradient_basis_wave on task  5)
  |   Maximum:        0.732 MB (gradient_basis_wave on task  6)
  |   Average:        0.700 MB
  Note:  These values currently only include a subset of arrays which are explicitly tracked.
  The "true" memory usage will be greater.
------------------------------------------------------------

------------------------------------------------------------
          Begin self-consistency iteration #    2

  Date     :  20220517, Time     :  115233.819
------------------------------------------------------------
  Pulay mixing of updated and previous charge densities.
  Renormalizing the density to the exact electron count on the 3D integration grid.
  | Formal number of electrons (from input files) :     120.0000000000
  | Integrated number of electrons on 3D grid     :     120.0000000000
  | Charge integration error                      :       0.0000000000
  | Normalization factor for density and gradient :       1.0000000000

  Evaluating partitioned Hartree potential by multipole expansion.
  | Original multipole sum: apparent total charge =  -0.117405E-12
  | Sum of charges compensated after spline to logarithmic grids =   0.881443E-04
  | Analytical far-field extrapolation by fixed multipoles:
  | Hartree multipole sum: apparent total charge =  -0.117011E-12
  Summing up the Hartree potential.
  Time summed over all CPUs for potential: real work        0.380 s, elapsed        0.394 s
  | RMS charge density error from multipole expansion :   0.126454E-01

  Integrating Hamiltonian matrix: batch-based integration.
  Time summed over all CPUs for integration: real work        0.664 s, elapsed        0.700 s

  Updating Kohn-Sham eigenvalues and eigenvectors using ELSI and the ELPA eigensolver.
  Starting ELPA eigensolver
  Finished transformation to standard eigenproblem
  | Time :     0.001 s
  Finished solving standard eigenproblem
  | Time :     0.003 s
  Finished back-transformation of eigenvectors
  | Time :     0.000 s

  Obtaining occupation numbers and chemical potential using ELSI.
  | Chemical potential (Fermi level):    -7.99668689 eV
  Highest occupied state (VBM) at     -9.50069627 eV
  | Occupation number:      2.00000000

  Lowest unoccupied state (CBM) at    -4.62772972 eV
  | Occupation number:      0.00000000

  Overall HOMO-LUMO gap:      4.87296655 eV.

  Checking to see if s.c.f. parameters should be adjusted.

  Total energy components:
  | Sum of eigenvalues            :        -885.31452714 Ha      -24090.63400156 eV
  | XC energy correction          :        -145.15783098 Ha       -3949.94555187 eV
  | XC potential correction       :         189.01283068 Ha        5143.30081095 eV
  | Free-atom electrostatic energy:        -781.49696091 Ha      -21265.61428883 eV
  | Hartree energy correction     :          -2.10880481 Ha         -57.38349856 eV
  | Entropy correction            :           0.00000000 Ha           0.00000000 eV
  | ---------------------------
  | Total energy                  :       -1625.06529316 Ha      -44220.27652986 eV
  | Total energy, T -> 0          :       -1625.06529316 Ha      -44220.27652986 eV  <-- do not rely on this value for anything but (periodic) metals
  | Electronic free energy        :       -1625.06529316 Ha      -44220.27652986 eV

  Derived energy quantities:
  | Kinetic energy                :        1630.05120534 Ha       44355.95010311 eV
  | Electrostatic energy          :       -3109.95866752 Ha      -84626.28108111 eV
  | Energy correction for multipole
  | error in Hartree potential    :           0.04403357 Ha           1.19821428 eV
  | Sum of eigenvalues per atom                           :       -2007.55283346 eV
  | Total energy (T->0) per atom                          :       -3685.02304416 eV  <-- do not rely on this value for anything but (periodic) metals
  | Electronic free energy per atom                       :       -3685.02304416 eV
  Evaluating new KS density.
  Integration grid: deviation in total charge (<rho> - N_e) =   0.000000E+00

  Self-consistency convergence accuracy:
  | Change of charge density      :  0.4844E+00
  | Change of sum of eigenvalues  : -0.8715E+02 eV
  | Change of total energy        :  0.1804E+01 eV


------------------------------------------------------------
  End self-consistency iteration #     2       :  max(cpu_time)    wall_clock(cpu1)
  | Time for this iteration                     :        0.084 s           0.083 s
  | Charge density update                       :        0.028 s           0.028 s
  | Density mixing                              :        0.004 s           0.003 s
  | Hartree multipole update                    :        0.001 s           0.001 s
  | Hartree multipole summation                 :        0.017 s           0.017 s
  | Integration                                 :        0.030 s           0.029 s
  | Solution of K.-S. eqns.                     :        0.004 s           0.004 s
  | Total energy evaluation                     :        0.000 s           0.001 s

  Partial memory accounting:
  | Current value for overall tracked memory usage:
  |   Minimum:        0.274 MB (on task 23)
  |   Maximum:        0.293 MB (on task  0)
  |   Average:        0.288 MB
  | Peak value for overall tracked memory usage:
  |   Minimum:        1.276 MB (on task 22 after allocating wave)
  |   Maximum:        1.378 MB (on task  6 after allocating wave)
  |   Average:        1.322 MB
  | Largest tracked array allocation so far:
  |   Minimum:        0.677 MB (gradient_basis_wave on task  5)
  |   Maximum:        0.732 MB (gradient_basis_wave on task  6)
  |   Average:        0.700 MB
  Note:  These values currently only include a subset of arrays which are explicitly tracked.
  The "true" memory usage will be greater.
------------------------------------------------------------

------------------------------------------------------------
          Begin self-consistency iteration #    3

  Date     :  20220517, Time     :  115233.908
------------------------------------------------------------
  Pulay mixing of updated and previous charge densities.
  Renormalizing the density to the exact electron count on the 3D integration grid.
  | Formal number of electrons (from input files) :     120.0000000000
  | Integrated number of electrons on 3D grid     :     120.0000000000
  | Charge integration error                      :      -0.0000000000
  | Normalization factor for density and gradient :       1.0000000000

  Evaluating partitioned Hartree potential by multipole expansion.
  | Original multipole sum: apparent total charge =  -0.112412E-12
  | Sum of charges compensated after spline to logarithmic grids =   0.115540E-03
  | Analytical far-field extrapolation by fixed multipoles:
  | Hartree multipole sum: apparent total charge =  -0.114675E-12
  Summing up the Hartree potential.
  Time summed over all CPUs for potential: real work        0.380 s, elapsed        0.394 s
  | RMS charge density error from multipole expansion :   0.175453E-01

  Integrating Hamiltonian matrix: batch-based integration.
  Time summed over all CPUs for integration: real work        0.664 s, elapsed        0.700 s

  Updating Kohn-Sham eigenvalues and eigenvectors using ELSI and the ELPA eigensolver.
  Starting ELPA eigensolver
  Finished transformation to standard eigenproblem
  | Time :     0.001 s
  Finished solving standard eigenproblem
  | Time :     0.003 s
  Finished back-transformation of eigenvectors
  | Time :     0.000 s

  Obtaining occupation numbers and chemical potential using ELSI.
  | Chemical potential (Fermi level):    -8.15070256 eV
  Highest occupied state (VBM) at     -9.24282258 eV
  | Occupation number:      2.00000000

  Lowest unoccupied state (CBM) at    -4.89385496 eV
  | Occupation number:      0.00000000

  Overall HOMO-LUMO gap:      4.34896762 eV.

  Total energy components:
  | Sum of eigenvalues            :        -886.36725265 Ha      -24119.28012014 eV
  | XC energy correction          :        -145.12123975 Ha       -3948.94985405 eV
  | XC potential correction       :         188.96345520 Ha        5141.95723595 eV
  | Free-atom electrostatic energy:        -781.49696091 Ha      -21265.61428883 eV
  | Hartree energy correction     :          -1.04234587 Ha         -28.36367415 eV
  | Entropy correction            :           0.00000000 Ha           0.00000000 eV
  | ---------------------------
  | Total energy                  :       -1625.06434398 Ha      -44220.25070121 eV
  | Total energy, T -> 0          :       -1625.06434398 Ha      -44220.25070121 eV  <-- do not rely on this value for anything but (periodic) metals
  | Electronic free energy        :       -1625.06434398 Ha      -44220.25070121 eV

  Derived energy quantities:
  | Kinetic energy                :        1628.28137103 Ha       44307.79046124 eV
  | Electrostatic energy          :       -3108.22447525 Ha      -84579.09130841 eV
  | Energy correction for multipole
  | error in Hartree potential    :           0.05933731 Ha           1.61465043 eV
  | Sum of eigenvalues per atom                           :       -2009.94001001 eV
  | Total energy (T->0) per atom                          :       -3685.02089177 eV  <-- do not rely on this value for anything but (periodic) metals
  | Electronic free energy per atom                       :       -3685.02089177 eV
  Evaluating new KS density.
  Integration grid: deviation in total charge (<rho> - N_e) =   1.421085E-14

  Self-consistency convergence accuracy:
  | Change of charge density      :  0.1278E+00
  | Change of sum of eigenvalues  : -0.2865E+02 eV
  | Change of total energy        :  0.2583E-01 eV


------------------------------------------------------------
  End self-consistency iteration #     3       :  max(cpu_time)    wall_clock(cpu1)
  | Time for this iteration                     :        0.083 s           0.080 s
  | Charge density update                       :        0.027 s           0.027 s
  | Density mixing                              :        0.004 s           0.001 s
  | Hartree multipole update                    :        0.001 s           0.001 s
  | Hartree multipole summation                 :        0.017 s           0.017 s
  | Integration                                 :        0.030 s           0.029 s
  | Solution of K.-S. eqns.                     :        0.004 s           0.004 s
  | Total energy evaluation                     :        0.000 s           0.000 s

  Partial memory accounting:
  | Current value for overall tracked memory usage:
  |   Minimum:        0.274 MB (on task 23)
  |   Maximum:        0.293 MB (on task  0)
  |   Average:        0.288 MB
  | Peak value for overall tracked memory usage:
  |   Minimum:        1.276 MB (on task 22 after allocating wave)
  |   Maximum:        1.378 MB (on task  6 after allocating wave)
  |   Average:        1.322 MB
  | Largest tracked array allocation so far:
  |   Minimum:        0.677 MB (gradient_basis_wave on task  5)
  |   Maximum:        0.732 MB (gradient_basis_wave on task  6)
  |   Average:        0.700 MB
  Note:  These values currently only include a subset of arrays which are explicitly tracked.
  The "true" memory usage will be greater.
------------------------------------------------------------

------------------------------------------------------------
          Begin self-consistency iteration #    4

  Date     :  20220517, Time     :  115233.994
------------------------------------------------------------
  Pulay mixing of updated and previous charge densities.
  Renormalizing the density to the exact electron count on the 3D integration grid.
  | Formal number of electrons (from input files) :     120.0000000000
  | Integrated number of electrons on 3D grid     :     120.0000000000
  | Charge integration error                      :       0.0000000000
  | Normalization factor for density and gradient :       1.0000000000

  Evaluating partitioned Hartree potential by multipole expansion.
  | Original multipole sum: apparent total charge =  -0.515077E-13
  | Sum of charges compensated after spline to logarithmic grids =   0.125884E-03
  | Analytical far-field extrapolation by fixed multipoles:
  | Hartree multipole sum: apparent total charge =  -0.517044E-13
  Summing up the Hartree potential.
  Time summed over all CPUs for potential: real work        0.381 s, elapsed        0.395 s
  | RMS charge density error from multipole expansion :   0.195235E-01

  Integrating Hamiltonian matrix: batch-based integration.
  Time summed over all CPUs for integration: real work        0.664 s, elapsed        0.696 s

  Updating Kohn-Sham eigenvalues and eigenvectors using ELSI and the ELPA eigensolver.
  Starting ELPA eigensolver
  Finished transformation to standard eigenproblem
  | Time :     0.000 s
  Finished solving standard eigenproblem
  | Time :     0.003 s
  Finished back-transformation of eigenvectors
  | Time :     0.000 s

  Obtaining occupation numbers and chemical potential using ELSI.
  | Chemical potential (Fermi level):    -8.13145435 eV
  Highest occupied state (VBM) at     -9.28837268 eV
  | Occupation number:      2.00000000

  Lowest unoccupied state (CBM) at    -4.85914544 eV
  | Occupation number:      0.00000000

  Overall HOMO-LUMO gap:      4.42922725 eV.

  Total energy components:
  | Sum of eigenvalues            :        -886.48889514 Ha      -24122.59018067 eV
  | XC energy correction          :        -145.10467703 Ha       -3948.49915929 eV
  | XC potential correction       :         188.94105100 Ha        5141.34758657 eV
  | Free-atom electrostatic energy:        -781.49696091 Ha      -21265.61428883 eV
  | Hartree energy correction     :          -0.91256264 Ha         -24.83209280 eV
  | Entropy correction            :           0.00000000 Ha           0.00000000 eV
  | ---------------------------
  | Total energy                  :       -1625.06204471 Ha      -44220.18813502 eV
  | Total energy, T -> 0          :       -1625.06204471 Ha      -44220.18813502 eV  <-- do not rely on this value for anything but (periodic) metals
  | Electronic free energy        :       -1625.06204471 Ha      -44220.18813502 eV

  Derived energy quantities:
  | Kinetic energy                :        1627.63529567 Ha       44290.20985626 eV
  | Electrostatic energy          :       -3107.59266336 Ha      -84561.89883198 eV
  | Energy correction for multipole
  | error in Hartree potential    :           0.06509539 Ha           1.77133560 eV
  | Sum of eigenvalues per atom                           :       -2010.21584839 eV
  | Total energy (T->0) per atom                          :       -3685.01567792 eV  <-- do not rely on this value for anything but (periodic) metals
  | Electronic free energy per atom                       :       -3685.01567792 eV
  Evaluating new KS density.
  Integration grid: deviation in total charge (<rho> - N_e) =   0.000000E+00

  Self-consistency convergence accuracy:
  | Change of charge density      :  0.8438E-01
  | Change of sum of eigenvalues  : -0.3310E+01 eV
  | Change of total energy        :  0.6257E-01 eV


------------------------------------------------------------
  End self-consistency iteration #     4       :  max(cpu_time)    wall_clock(cpu1)
  | Time for this iteration                     :        0.084 s           0.081 s
  | Charge density update                       :        0.028 s           0.028 s
  | Density mixing                              :        0.004 s           0.001 s
  | Hartree multipole update                    :        0.001 s           0.002 s
  | Hartree multipole summation                 :        0.017 s           0.016 s
  | Integration                                 :        0.029 s           0.030 s
  | Solution of K.-S. eqns.                     :        0.004 s           0.004 s
  | Total energy evaluation                     :        0.000 s           0.000 s

  Partial memory accounting:
  | Current value for overall tracked memory usage:
  |   Minimum:        0.274 MB (on task 23)
  |   Maximum:        0.293 MB (on task  0)
  |   Average:        0.288 MB
  | Peak value for overall tracked memory usage:
  |   Minimum:        1.276 MB (on task 22 after allocating wave)
  |   Maximum:        1.378 MB (on task  6 after allocating wave)
  |   Average:        1.322 MB
  | Largest tracked array allocation so far:
  |   Minimum:        0.677 MB (gradient_basis_wave on task  5)
  |   Maximum:        0.732 MB (gradient_basis_wave on task  6)
  |   Average:        0.700 MB
  Note:  These values currently only include a subset of arrays which are explicitly tracked.
  The "true" memory usage will be greater.
------------------------------------------------------------

------------------------------------------------------------
          Begin self-consistency iteration #    5

  Date     :  20220517, Time     :  115234.081
------------------------------------------------------------
  Pulay mixing of updated and previous charge densities.
  Renormalizing the density to the exact electron count on the 3D integration grid.
  | Formal number of electrons (from input files) :     120.0000000000
  | Integrated number of electrons on 3D grid     :     120.0000000000
  | Charge integration error                      :       0.0000000000
  | Normalization factor for density and gradient :       1.0000000000

  Evaluating partitioned Hartree potential by multipole expansion.
  | Original multipole sum: apparent total charge =  -0.356667E-13
  | Sum of charges compensated after spline to logarithmic grids =   0.126018E-03
  | Analytical far-field extrapolation by fixed multipoles:
  | Hartree multipole sum: apparent total charge =  -0.378313E-13
  Summing up the Hartree potential.
  Time summed over all CPUs for potential: real work        0.381 s, elapsed        0.395 s
  | RMS charge density error from multipole expansion :   0.193267E-01

  Integrating Hamiltonian matrix: batch-based integration.
  Time summed over all CPUs for integration: real work        0.664 s, elapsed        0.695 s

  Updating Kohn-Sham eigenvalues and eigenvectors using ELSI and the ELPA eigensolver.
  Starting ELPA eigensolver
  Finished transformation to standard eigenproblem
  | Time :     0.000 s
  Finished solving standard eigenproblem
  | Time :     0.003 s
  Finished back-transformation of eigenvectors
  | Time :     0.000 s

  Obtaining occupation numbers and chemical potential using ELSI.
  | Chemical potential (Fermi level):    -8.09376289 eV
  Highest occupied state (VBM) at     -9.35044076 eV
  | Occupation number:      2.00000000

  Lowest unoccupied state (CBM) at    -4.79169499 eV
  | Occupation number:      0.00000000

  Overall HOMO-LUMO gap:      4.55874577 eV.

  Total energy components:
  | Sum of eigenvalues            :        -886.30602723 Ha      -24117.61409159 eV
  | XC energy correction          :        -145.10008460 Ha       -3948.37419302 eV
  | XC potential correction       :         188.93518986 Ha        5141.18809680 eV
  | Free-atom electrostatic energy:        -781.49696091 Ha      -21265.61428883 eV
  | Hartree energy correction     :          -1.09400670 Ha         -29.76943699 eV
  | Entropy correction            :           0.00000000 Ha           0.00000000 eV
[...]
   Total forces(   7)            :  0.225868E+01  0.152261E+00  0.184912E+00
  atom #    8
   Hellmann-Feynman              :  0.950795E+00 -0.155283E+00  0.546585E+00
   Ionic forces                  :  0.000000E+00  0.000000E+00  0.000000E+00
   Multipole                     :  0.315333E+00  0.196251E+00  0.321692E+00
   Hartree pot. SCF incomplete   :  0.979997E-06 -0.622867E-06  0.157475E-05
   Pulay + GGA                   : -0.271307E+01  0.103444E+00 -0.180089E+01
   ----------------------------------------------------------------
   Total forces(   8)            : -0.144694E+01  0.144412E+00 -0.932617E+00
  atom #    9
   Hellmann-Feynman              : -0.177394E-01  0.286224E+01  0.113066E+01
   Ionic forces                  :  0.000000E+00  0.000000E+00  0.000000E+00
   Multipole                     :  0.516721E-01  0.666211E+00  0.220246E+00
   Hartree pot. SCF incomplete   : -0.555554E-06  0.136674E-05  0.728966E-06
   Pulay + GGA                   :  0.443644E-01 -0.631894E+01 -0.279522E+01
   ----------------------------------------------------------------
   Total forces(   9)            :  0.782965E-01 -0.279049E+01 -0.144431E+01
  atom #   10
   Hellmann-Feynman              :  0.157484E+01 -0.230883E+01  0.776507E+00
   Ionic forces                  :  0.000000E+00  0.000000E+00  0.000000E+00
   Multipole                     :  0.446800E+00 -0.566001E+00  0.192513E+00
   Hartree pot. SCF incomplete   :  0.253823E-06 -0.179220E-05  0.127027E-05
   Pulay + GGA                   : -0.387457E+01  0.512179E+01 -0.199303E+01
   ----------------------------------------------------------------
   Total forces(  10)            : -0.185292E+01  0.224696E+01 -0.102401E+01
  atom #   11
   Hellmann-Feynman              : -0.227372E+01 -0.533906E+00  0.259440E+01
   Ionic forces                  :  0.000000E+00  0.000000E+00  0.000000E+00
   Multipole                     : -0.354034E+00 -0.130884E+00  0.540415E+00
   Hartree pot. SCF incomplete   : -0.213685E-05 -0.573345E-06  0.963726E-06
   Pulay + GGA                   :  0.459633E+01  0.115410E+01 -0.560282E+01
   ----------------------------------------------------------------
   Total forces(  11)            :  0.196857E+01  0.489308E+00 -0.246800E+01
  atom #   12
   Hellmann-Feynman              :  0.180425E+01  0.580169E+00 -0.260685E+01
   Ionic forces                  :  0.000000E+00  0.000000E+00  0.000000E+00
   Multipole                     :  0.423482E+00  0.277795E+00 -0.617006E+00
   Hartree pot. SCF incomplete   : -0.418281E-06  0.122924E-06 -0.207435E-06
   Pulay + GGA                   : -0.429883E+01 -0.182056E+01  0.597542E+01
   ----------------------------------------------------------------
   Total forces(  12)            : -0.207110E+01 -0.962599E+00  0.275156E+01


  Self-consistency convergence accuracy:
  | Change of charge density      :  0.1675E-06
  | Change of sum of eigenvalues  : -0.9171E-05 eV
  | Change of total energy        : -0.2104E-09 eV
  | Change of forces              :  0.3803E-06 eV/A

  Writing Kohn-Sham eigenvalues.

  State    Occupation    Eigenvalue [Ha]    Eigenvalue [eV]
      1       2.00000         -55.670757        -1514.87837
      2       2.00000         -55.628415        -1513.72618
      3       2.00000         -55.600650        -1512.97066
      4       2.00000         -24.325476         -661.92987
      5       2.00000         -24.325420         -661.92836
      6       2.00000         -24.320288         -661.78872
      7       2.00000         -24.251599         -659.91960
      8       2.00000         -24.234009         -659.44094
      9       2.00000         -24.206309         -658.68719
     10       2.00000         -24.204241         -658.63091
     11       2.00000         -24.197076         -658.43593
     12       2.00000         -24.195317         -658.38807
     13       2.00000          -4.123139         -112.19633
     14       2.00000          -4.080138         -111.02621
     15       2.00000          -4.054178         -110.31979
     16       2.00000          -2.716341          -73.91539
     17       2.00000          -2.715192          -73.88415
     18       2.00000          -2.712517          -73.81135
     19       2.00000          -2.674319          -72.77192
     20       2.00000          -2.672205          -72.71439
     21       2.00000          -2.668404          -72.61097
     22       2.00000          -2.649005          -72.08311
     23       2.00000          -2.645218          -71.98006
     24       2.00000          -2.642963          -71.91868
     25       2.00000          -1.200236          -32.66007
     26       2.00000          -1.194333          -32.49945
     27       2.00000          -1.182093          -32.16639
     28       2.00000          -1.105388          -30.07914
     29       2.00000          -1.079735          -29.38109
     30       2.00000          -1.054951          -28.70668
     31       2.00000          -1.050411          -28.58312
     32       2.00000          -1.045398          -28.44672
     33       2.00000          -1.041683          -28.34562
     34       2.00000          -0.580551          -15.79759
     35       2.00000          -0.563392          -15.33067
     36       2.00000          -0.552024          -15.02133
     37       2.00000          -0.533696          -14.52262
     38       2.00000          -0.523664          -14.24963
     39       2.00000          -0.499534          -13.59301
     40       2.00000          -0.494524          -13.45669
     41       2.00000          -0.489643          -13.32387
     42       2.00000          -0.475820          -12.94773
     43       2.00000          -0.467005          -12.70785
     44       2.00000          -0.439989          -11.97271
     45       2.00000          -0.427218          -11.62519
     46       2.00000          -0.416139          -11.32371
     47       2.00000          -0.410605          -11.17314
     48       2.00000          -0.409689          -11.14821
     49       2.00000          -0.399357          -10.86706
     50       2.00000          -0.388466          -10.57069
     51       2.00000          -0.385767          -10.49725
     52       2.00000          -0.383968          -10.44831
     53       2.00000          -0.363930           -9.90303
     54       2.00000          -0.362648           -9.86815
     55       2.00000          -0.356259           -9.69429
     56       2.00000          -0.355862           -9.68349
     57       2.00000          -0.353909           -9.63035
     58       2.00000          -0.346696           -9.43408
     59       2.00000          -0.346039           -9.41621
     60       2.00000          -0.342727           -9.32608
     61       0.00000          -0.176068           -4.79105
     62       0.00000          -0.105194           -2.86248
     63       0.00000          -0.096483           -2.62542
     64       0.00000          -0.070556           -1.91993
     65       0.00000          -0.036775           -1.00071
     66       0.00000          -0.031726           -0.86331
     67       0.00000          -0.010130           -0.27566
     68       0.00000           0.007992            0.21748
     69       0.00000           0.028938            0.78745
     70       0.00000           0.042530            1.15730
     71       0.00000           0.049311            1.34181
     72       0.00000           0.080473            2.18977
     73       0.00000           0.125792            3.42297
     74       0.00000           0.147192            4.00529
     75       0.00000           0.151033            4.10982
     76       0.00000           0.159625            4.34360
     77       0.00000           0.174833            4.75745
     78       0.00000           0.181757            4.94585
     79       0.00000           0.185339            5.04334
     80       0.00000           0.196225            5.33956
     81       0.00000           0.199223            5.42113
     82       0.00000           0.207938            5.65829
     83       0.00000           0.210091            5.71688
     84       0.00000           0.217994            5.93191
     85       0.00000           0.224322            6.10410
     86       0.00000           0.226513            6.16372
     87       0.00000           0.248519            6.76254
     88       0.00000           0.256790            6.98762
     89       0.00000           0.268492            7.30603
     90       0.00000           0.285371            7.76534
     91       0.00000           0.298835            8.13171
     92       0.00000           0.315342            8.58090
     93       0.00000           0.326514            8.88489
     94       0.00000           0.344941            9.38633
     95       0.00000           0.357111            9.71749
     96       0.00000           0.359240            9.77541

  Highest occupied state (VBM) at     -9.32607817 eV
  | Occupation number:      2.00000000

  Lowest unoccupied state (CBM) at    -4.79104560 eV
  | Occupation number:      0.00000000

  Overall HOMO-LUMO gap:      4.53503257 eV.
  | Chemical Potential                          :    -8.09162347 eV

  Self-consistency cycle converged.


------------------------------------------------------------
  End self-consistency iteration #    14       :  max(cpu_time)    wall_clock(cpu1)
  | Time for this iteration                     :        0.269 s           0.268 s
  | Charge density & force component update     :        0.146 s           0.147 s
  | Density mixing                              :        0.005 s           0.003 s
  | Hartree multipole update                    :        0.001 s           0.001 s
  | Hartree multipole summation                 :        0.049 s           0.049 s
  | Hartree pot. SCF incomplete forces          :        0.033 s           0.033 s
  | Integration                                 :        0.029 s           0.030 s
  | Solution of K.-S. eqns.                     :        0.004 s           0.004 s
  | Total energy evaluation                     :        0.000 s           0.000 s

  Partial memory accounting:
  | Current value for overall tracked memory usage:
  |   Minimum:        0.274 MB (on task 23)
  |   Maximum:        0.293 MB (on task  0)
  |   Average:        0.289 MB
  | Peak value for overall tracked memory usage:
  |   Minimum:        2.791 MB (on task 22 after allocating hessian_basis_wave)
  |   Maximum:        2.989 MB (on task  6 after allocating hessian_basis_wave)
  |   Average:        2.878 MB
  | Largest tracked array allocation so far:
  |   Minimum:        1.354 MB (hessian_basis_wave on task  5)
  |   Maximum:        1.464 MB (hessian_basis_wave on task  6)
  |   Average:        1.401 MB
  Note:  These values currently only include a subset of arrays which are explicitly tracked.
  The "true" memory usage will be greater.
------------------------------------------------------------
  Removing unitary transformations (pure translations, rotations) from forces on atoms.
  Atomic forces before filtering:
  | Net force on center of mass :  -0.711129E-02  0.239133E-02  0.155118E-02 eV/A
  | Net torque on center of mass:   0.616698E-03 -0.620915E-02 -0.866409E-02 eV
  Atomic forces after filtering:
  | Net force on center of mass :  -0.356812E-15  0.356812E-15  0.000000E+00 eV/A
  | Net torque on center of mass:  -0.226580E-14  0.302107E-14 -0.944085E-15 eV

  Energy and forces in a compact form:
  | Total energy uncorrected      :         -0.442201836493366E+05 eV
  | Total energy corrected        :         -0.442201836493366E+05 eV  <-- do not rely on this value for anything but (periodic) metals
  | Electronic free energy        :         -0.442201836493366E+05 eV
  Total atomic forces (unitary forces cleaned) [eV/Ang]:
  |    1          0.175338391068674E+01          0.829366171483792E+00         -0.207330098805206E+01
  |    2          0.444069473680334E+00          0.216689359584784E+00          0.211146434163579E+01
  |    3         -0.306503241211175E+01         -0.755494829688282E+00         -0.221551327561582E+00
  |    4          0.102944907507497E+01          0.278917876802562E+00          0.301391473929882E+01
  |    5          0.192173552933038E+00          0.224451482119554E+01         -0.249937010506459E+00
  |    6          0.707499949600895E+00         -0.209306676173570E+01          0.352900514726301E+00
  |    7          0.225939653700922E+01          0.151819014671486E+00          0.184860310254940E+00
  |    8         -0.144635620003290E+01          0.144641541296795E+00         -0.932928497555497E+00
  |    9          0.787346251041796E-01         -0.279063225079096E+01         -0.144442978790615E+01
  |   10         -0.185178235260510E+01          0.224704217714474E+01         -0.102438118345402E+01
  |   11          0.196933310602217E+01          0.488402189812856E+00         -0.246786608389691E+01
  |   12         -0.207086926536180E+01         -0.962199309777623E+00          0.275125497301682E+01

  ------------------------------------ 
  Start decomposition of the XC Energy 
  ------------------------------------ 
  X and C from original XC functional choice 
  Hartree-Fock Energy :          0.000000000 Ha              0.000000000 eV
  X Energy            :       -140.164188316 Ha          -3814.061621404 eV
  C Energy            :         -4.940101889 Ha           -134.427011968 eV
  Total XC Energy     :       -145.104290205 Ha          -3948.488633372 eV
  ------------------------------------ 
  LDA X and C from self-consistent density 
  X Energy LDA        :       -132.736867114 Ha          -3611.953928376 eV
  C Energy LDA        :         -8.822387970 Ha           -240.069391260 eV
  ------------------------------------ 
  End decomposition of the XC Energy 
  ------------------------------------ 

------------------------------------------------------------

------------------------------------------------------------------------------
  Final output of selected total energy values:

  The following output summarizes some interesting total energy values
  at the end of a run (AFTER all relaxation, molecular dynamics, etc.).

  | Total energy of the DFT / Hartree-Fock s.c.f. calculation      :         -44220.183649337 eV
  | Final zero-broadening corrected energy (caution - metals only) :         -44220.183649337 eV
  | For reference only, the value of 1 Hartree used in FHI-aims is :             27.211384500 eV

  Before relying on these values, please be sure to understand exactly which
  total energy value is referred to by a given number. Different objects may
  all carry the same name 'total energy'. Definitions:

  Total energy of the DFT / Hartree-Fock s.c.f. calculation:
  | Note that this energy does not include ANY quantities calculated after the
  | s.c.f. cycle, in particular not ANY RPA, MP2, etc. many-body perturbation terms.

  Final zero-broadening corrected energy:
  | For metallic systems only, a broadening of the occupation numbers at the Fermi
  | level can be extrapolated back to zero broadening by an electron-gas inspired
  | formula. For all systems that are not real metals, this value can be
  | meaningless and should be avoided.

------------------------------------------------------------------------------
  Methods described in the following list of references were used in this FHI-aims run.
  If you publish the results, please make sure to cite these reference if they apply.
  FHI-aims is an academic code, and for our developers (often, Ph.D. students
  and postdocs), scientific credit in the community is essential.
  Thank you for helping us!

  For any use of FHI-aims, please cite:

    Volker Blum, Ralf Gehrke, Felix Hanke, Paula Havu, Ville Havu,
    Xinguo Ren, Karsten Reuter, and Matthias Scheffler
    'Ab initio molecular simulations with numeric atom-centered orbitals'
    Computer Physics Communications 180, 2175-2196 (2009)
    http://dx.doi.org/10.1016/j.cpc.2009.06.022


  The ELSI infrastructure was used in your run to solve the Kohn-Sham electronic structure.
  Please check out http://elsi-interchange.org to learn more.
  If scalability is important for your project, please acknowledge ELSI by citing:

    V. W-z. Yu, F. Corsetti, A. Garcia, W. P. Huhn, M. Jacquelin, W. Jia,
    B. Lange, L. Lin, J. Lu, W. Mi, A. Seifitokaldani, A. Vazquez-Mayagoitia,
    C. Yang, H. Yang, and V. Blum
    'ELSI: A unified software interface for Kohn-Sham electronic structure solvers'
    Computer Physics Communications 222, 267-285 (2018).
    http://dx.doi.org/10.1016/j.cpc.2017.09.007


  For the real-space grid partitioning and parallelization used in this calculation, please cite:

    Ville Havu, Volker Blum, Paula Havu, and Matthias Scheffler,
    'Efficient O(N) integration for all-electron electronic structure calculation'
    'using numerically tabulated basis functions'
    Journal of Computational Physics 228, 8367-8379 (2009).
    http://dx.doi.org/10.1016/j.jcp.2009.08.008

  Of course, there are many other important community references, e.g., those cited in the
  above references. Our list is limited to references that describe implementations in the
  FHI-aims code. The reason is purely practical (length of this list) - please credit others as well.

------------------------------------------------------------
          Leaving FHI-aims.
          Date     :  20220517, Time     :  115235.339

          Computational steps:
          | Number of self-consistency cycles          :           14
          | Number of SCF (re)initializations          :            1

          Detailed time accounting                     :  max(cpu_time)    wall_clock(cpu1)
          | Total time                                  :        1.910 s           1.977 s
          | Preparation time                            :        0.184 s           0.184 s
          | Boundary condition initalization            :        0.000 s           0.001 s
          | Grid partitioning                           :        0.034 s           0.034 s
          | Preloading free-atom quantities on grid     :        0.016 s           0.016 s
          | Free-atom superposition energy              :        0.005 s           0.005 s
          | Total time for integrations                 :        0.457 s           0.457 s
          | Total time for solution of K.-S. equations  :        0.068 s           0.067 s
          | Total time for density & force components   :        0.651 s           0.654 s
          | Total time for mixing                       :        0.058 s           0.028 s
          | Total time for Hartree multipole update     :        0.019 s           0.019 s
          | Total time for Hartree multipole sum        :        0.300 s           0.300 s
          | Total time for total energy evaluation      :        0.002 s           0.001 s
          | Total time NSC force correction             :        0.066 s           0.066 s
          | Total time for scaled ZORA corrections      :        0.000 s           0.000 s

          Partial memory accounting:
          | Residual value for overall tracked memory usage across tasks:     0.000000 MB (should be 0.000000 MB)
          | Peak values for overall tracked memory usage:
          |   Minimum:        2.791 MB (on task 22 after allocating hessian_basis_wave)
          |   Maximum:        2.989 MB (on task  6 after allocating hessian_basis_wave)
          |   Average:        2.878 MB
          | Largest tracked array allocation:
          |   Minimum:        1.354 MB (hessian_basis_wave on task  5)
          |   Maximum:        1.464 MB (hessian_basis_wave on task  6)
          |   Average:        1.401 MB
          Note:  These values currently only include a subset of arrays which are explicitly tracked.
          The "true" memory usage will be greater.

          Have a nice day.
------------------------------------------------------------
