------------------------------------------------------------
          Invoking FHI-aims ...

          When using FHI-aims, please cite the following reference:

            Volker Blum, Ralf Gehrke, Felix Hanke, Paula Havu,
            Ville Havu, Xinguo Ren, Karsten Reuter, and Matthias Scheffler,
            'Ab Initio Molecular Simulations with Numeric Atom-Centered Orbitals',
            Computer Physics Communications 180, 2175-2196 (2009)

          In addition, many other developments in FHI-aims are likely important for
          your particular application. A partial list of references is given at the end of
          this file. Thank you for giving credit to the authors of these developments.

          For any questions about FHI-aims, please visit our slack channel at

            https://fhi-aims.slack.com

          and our main development and support site at

            https://aims-git.rz-berlin.mpg.de .

          The latter site, in particular, has a wiki to collect information, as well
          as an issue tracker to log discussions, suggest improvements, and report issues
          or bugs. https://aims-git.rz-berlin.mpg.de is also the main development site
          of the project and all new and updated code versions can be obtained there.
          Please send an email to aims-coordinators@fhi-berlin.mpg.de and we will add
          you to these sites. They are for you and everyone is welcome there.

------------------------------------------------------------



  Date     :  20220517, Time     :  111928.346
  Time zero on CPU 1             :   0.421800000000000E-01  s.
  Internal wall clock time zero  :           422018368.346  s.

  FHI-aims created a unique identifier for this run for later identification
  aims_uuid : 0EEE897F-0EE1-4251-AF8B-BDC72D95156C

  Build configuration of the current instance of FHI-aims
  -------------------------------------------------------
  FHI-aims version      : 210914
  Commit number         : GITDIR-NOTFOUND
  CMake host system     : Linux-3.10.0-693.17.1.el7.x86_64
  CMake version         : 3.21.1
  Fortran compiler      : /shared/ucl/apps/intel/2018.Update3/impi/2018.3.222/intel64/bin/mpiifort (Intel) version 18.0.3.20180410
  Fortran compiler flags: -O3 -ip -fp-model precise
  C compiler            : /shared/ucl/apps/intel/2018.Update3/compilers_and_libraries_2018.3.222/linux/bin/intel64/icc (Intel) version 18.0.3.20180410
  C compiler flags      : -O3 -ip -fp-model precise -std=gnu99
  ELPA2 kernel          : AVX2
  Using MPI
  Using ScaLAPACK
  Using LibXC
  Using i-PI
  Using RLSY
  Linking against: /shared/ucl/apps/intel/2019.Update5/compilers_and_libraries_2019.5.281/linux/mkl/lib/intel64/libmkl_intel_lp64.so
                   /shared/ucl/apps/intel/2019.Update5/compilers_and_libraries_2019.5.281/linux/mkl/lib/intel64/libmkl_sequential.so
                   /shared/ucl/apps/intel/2019.Update5/compilers_and_libraries_2019.5.281/linux/mkl/lib/intel64/libmkl_core.so
                   /shared/ucl/apps/intel/2019.Update5/compilers_and_libraries_2019.5.281/linux/mkl/lib/intel64/libmkl_blacs_intelmpi_lp64.so
                   /shared/ucl/apps/intel/2019.Update5/compilers_and_libraries_2019.5.281/linux/mkl/lib/intel64/libmkl_scalapack_lp64.so

  Using       24 parallel tasks.
  Task        0 on host node-k98i-010 reporting.
  Task        1 on host node-k98i-010 reporting.
  Task        2 on host node-k98i-010 reporting.
  Task        3 on host node-k98i-010 reporting.
  Task        4 on host node-k98i-010 reporting.
  Task        5 on host node-k98i-010 reporting.
  Task        6 on host node-k98i-010 reporting.
  Task        7 on host node-k98i-010 reporting.
  Task        8 on host node-k98i-010 reporting.
  Task        9 on host node-k98i-010 reporting.
  Task       10 on host node-k98i-010 reporting.
  Task       11 on host node-k98i-010 reporting.
  Task       12 on host node-k98i-010 reporting.
  Task       13 on host node-k98i-010 reporting.
  Task       14 on host node-k98i-010 reporting.
  Task       15 on host node-k98i-010 reporting.
  Task       16 on host node-k98i-010 reporting.
  Task       17 on host node-k98i-010 reporting.
  Task       18 on host node-k98i-010 reporting.
  Task       19 on host node-k98i-010 reporting.
  Task       20 on host node-k98i-010 reporting.
  Task       21 on host node-k98i-010 reporting.
  Task       22 on host node-k98i-010 reporting.
  Task       23 on host node-k98i-010 reporting.

  Performing system and environment tests:
  | Environment variable OMP_NUM_THREADS correctly set to 1.
  | Checking for ScaLAPACK...
  | Testing pdtran()...
  | All pdtran() tests passed.

  Obtaining array dimensions for all initial allocations:
  
  -----------------------------------------------------------------------
  Parsing control.in (first pass over file, find array dimensions only).
  The contents of control.in will be repeated verbatim below
  unless switched off by setting 'verbatim_writeout .false.' .
  in the first line of control.in .
  -----------------------------------------------------------------------
  
  #########################################################################################  Physical model
  #########################################################################################
  xc                 pbesol
  spin               none
  relativistic       atomic_zora scalar
  charge             0.0
  #  SCF convergence
  occupation_type    gaussian 0.01
  mixer              pulay
  n_max_pulay        10
  charge_mix_param   0.5
  sc_accuracy_rho    1E-5
  sc_accuracy_eev    1E-3
  sc_accuracy_etot   1E-6
  sc_accuracy_forces 1E-4
  sc_iter_limit      1500
  #  Relaxation
  #relax_geometry   bfgs 1.e-3
  
  ################################################################################
  #
  #  FHI-aims code project
  #  VB, Fritz-Haber Institut, 2009
  #
  #  Suggested "light" defaults for Al atom (to be pasted into control.in file)
  #  Be sure to double-check any results obtained with these settings for post-processing,
  #  e.g., with the "tight" defaults and larger basis sets.
  #
  ################################################################################
    species        Al
  #     global species definitions
      nucleus             13
      mass                26.9815386
  #
      l_hartree           4
  #
      cut_pot             3.5          1.5  1.0
      basis_dep_cutoff    1e-4
  #
      radial_base         41 5.0
      radial_multiplier   1
      angular_grids       specified
        division   0.6594  110
        division   0.8170  194
        division   0.9059  302
  #      division   1.0363  434
  #      division   1.1443  590
  #      division   1.2621  770
  #      division   2.8177  974
  #      outer_grid   974
        outer_grid   302
  ################################################################################
  #
  #  Definition of "minimal" basis
  #
  ################################################################################
  #     valence basis states
      valence      3  s   2.
      valence      3  p   1.
  #     ion occupancy
      ion_occ      3  s   1.
      ion_occ      2  p   6.
  ################################################################################
  #
  #  Suggested additional basis functions. For production calculations,
  #  uncomment them one after another (the most important basis functions are
  #  listed first).
  #
  #  Constructed for dimers: 2.0 A, 2.5 A, 3.0 A, 3.75 A, 4.5 A
  #
  ################################################################################
  #  "First tier" - improvements: -199.47 meV to -10.63 meV
       ionic 3 d auto
       ionic 3 p auto
  #     hydro 4 f 4.7
       ionic 3 s auto
  #  "Second tier" - improvements: -5.35 meV to -1.57 meV
  #     hydro 5 g 7
  #     hydro 3 d 6
  #     hydro 2 s 11.6
  #     hydro 2 p 0.9
  #  "Third tier" - improvements: -0.63 meV to -0.20 meV
  #     hydro 5 f 7.6
  #     hydro 4 p 7.2
  #     hydro 4 s 3.7
  #     hydro 4 d 7.6
  #  "Fourth tier" - improvements: -0.17 meV to -0.08 meV
  #     hydro 4 d 13.6
  #     hydro 5 g 11.2
  #     hydro 4 d 0.9
  #     hydro 1 s 0.4
  #     hydro 4 p 0.1
  #     hydro 5 f 9.8
  #  Further basis functions that fell out of the optimization - noise level...
  #     hydro 4 p 5
  
  ################################################################################
  #
  #  FHI-aims code project
  #  VB, Fritz-Haber Institut, 2009
  #
  #  Suggested "light" defaults for F atom (to be pasted into control.in file)
  #  Be sure to double-check any results obtained with these settings for post-processing,
  #  e.g., with the "tight" defaults and larger basis sets.
  #
  ################################################################################
    species        F
  #     global species definitions
      nucleus             9
      mass                18.9984032
  #
      l_hartree           4
  #
      cut_pot             3.5  1.5  1.0
      basis_dep_cutoff    1e-4
  #
      radial_base         37 5.0
      radial_multiplier   1
      angular_grids specified
        division   0.4014  110
        division   0.5291  194
        division   0.6019  302
  #      division   0.6814  434
  #      division   0.7989  590
  #      division   0.8965  770
  #      division   1.3427  974
  #      outer_grid   974
        outer_grid   302
  ################################################################################
  #
  #  Definition of "minimal" basis
  #
  ################################################################################
  #     valence basis states
      valence      2  s   2.
      valence      2  p   5.
  #     ion occupancy
      ion_occ      2  s   1.
      ion_occ      2  p   4.
  ################################################################################
  #
  #  Suggested additional basis functions. For production calculations,
  #  uncomment them one after another (the most important basis functions are
  #  listed first).
  #
  #  Constructed for dimers: 1.2 A, 1.418 A, 1.75 A, 2.25 A, 3.25 A
  #
  ################################################################################
  #  "First tier" - improvements: -149.44 meV to -45.88 meV
       hydro 2 p 1.7
       hydro 3 d 7.4
       hydro 3 s 6.8
  #  "Second tier" - improvements: -12.96 meV to -1.56 meV
  #     hydro 4 f 11.2
  #     ionic 2 p auto
  #     hydro 1 s 0.75
  #     hydro 4 d 8.8
  #     hydro 5 g 16.8
  #  "Third tier" - improvements: -0.58 meV to -0.05 meV
  #     hydro 3 p 6.2
  #     hydro 3 s 3.2
  #     hydro 4 f 9.6
  #     hydro 3 s 19.6
  #     hydro 4 d 8.6
  #     hydro 5 g 14.4
  # Further basis functions: -0.05 meV and below
  #     hydro 3 p 4.2
  
  -----------------------------------------------------------------------
  Completed first pass over input file control.in .
  -----------------------------------------------------------------------
  
  
  -----------------------------------------------------------------------
  Parsing geometry.in (first pass over file, find array dimensions only).
  The contents of geometry.in will be repeated verbatim below
  unless switched off by setting 'verbatim_writeout .false.' .
  in the first line of geometry.in .
  -----------------------------------------------------------------------
  
  atom 1.080665662 -0.111966284 2.443440237 Al
  atom 1.309454400 1.166277400 -0.021772600 Al
  atom -0.152949185 1.021876964 -2.389069873 Al
  atom -1.592275804 -0.156566944 -2.407300077 F
  atom 1.971957392 -0.445753554 0.781957113 F
  atom 0.318598984 2.027378054 -3.787701194 F
  atom -0.258351426 2.019566481 -0.776603095 F
  atom 2.685291753 2.352468909 -0.137544244 F
  atom 1.325934223 0.092943928 -1.627521177 F
  atom 0.387670071 1.480867423 1.632875502 F
  atom 2.331864330 0.348576619 3.721210609 F
  atom -0.227316441 -1.294764859 2.683603986 F
  
  -----------------------------------------------------------------------
  Completed first pass over input file geometry.in .
  -----------------------------------------------------------------------
  

  Basic array size parameters:
  | Number of species                 :        2
  | Number of atoms                   :       12
  | Max. basis fn. angular momentum   :        2
  | Max. atomic/ionic basis occupied n:        3
  | Max. number of basis fn. types    :        3
  | Max. radial fns per species/type  :        5
  | Max. logarithmic grid size        :     1340
  | Max. radial integration grid size :       41
  | Max. angular integration grid size:      302
  | Max. angular grid division number :        8
  | Radial grid for Hartree potential :     1340
  | Number of spin channels           :        1

------------------------------------------------------------
          Reading file control.in.
------------------------------------------------------------
  XC: Using PBEsol gradient-corrected functionals.
  Spin treatment: No spin polarisation.
  Scalar relativistic treatment of kinetic energy: on-site free-atom approximation to ZORA.
  Charge =   0.000000E+00: Neutral system requested explicitly.
  Occupation type: Gaussian broadening, width =   0.100000E-01 eV.
  Using pulay charge density mixing.
  Pulay mixing - number of memorized iterations:   10
  Charge density mixing - mixing parameter:     0.5000
  Convergence accuracy of self-consistent charge density:  0.1000E-04
  Convergence accuracy of sum of eigenvalues:  0.1000E-02
  Convergence accuracy of total energy:  0.1000E-05
  Convergence accuracy of forces:  0.1000E-03
  Maximum number of s.-c. iterations  :  1500
 
  Reading configuration options for species Al                  .
  | Found nuclear charge :  13.0000
  | Found atomic mass :    26.9815386000000      amu
  | Found l_max for Hartree potential  :   4
  | Found cutoff potl. onset [A], width [A], scale factor :    3.50000    1.50000    1.00000
  | Threshold for basis-dependent cutoff potential is   0.100000E-03
  | Found data for basic radial integration grid :    41 points, outermost radius =    5.000 A
  | Found multiplier for basic radial grid :   1
  | Found angular grid specification: user-specified.
  | Specified grid contains     4 separate shells.
  | Check grid settings after all constraints further below.
  | Found free-atom valence shell :  3 s   2.000
  | Found free-atom valence shell :  3 p   1.000
  | Found free-ion valence shell :  3 s   1.000
  | Found free-ion valence shell :  2 p   6.000
  | Found ionic basis function :  3 d , default cutoff radius.
  | Found ionic basis function :  3 p , default cutoff radius.
  | Found ionic basis function :  3 s , default cutoff radius.
  Species Al                  : Missing cutoff potential type.
  Defaulting to exp(1/x)/(1-x)^2 type cutoff potential.
  Species Al: No 'logarithmic' tag. Using default grid for free atom:
  | Default logarithmic grid data [bohr] : 0.1000E-03 0.1000E+03 0.1012E+01
  | Will include ionic basis functions of  2.0-fold positive Al                   ion.
  Species Al: On-site basis accuracy parameter (for Gram-Schmidt orthonormalisation) not specified.
  Using default value basis_acc =  0.1000000E-03.
  Species Al                  : Using default innermost maximum threshold i_radial=  2 for radial functions.
  Species Al                  : Default cutoff onset for free atom density etc. : 0.35000000E+01 AA.
  Species Al                  : Basic radial grid will be enhanced according to radial_multiplier =   1, to contain    41 grid points.
 
  Reading configuration options for species F                   .
  | Found nuclear charge :   9.0000
  | Found atomic mass :    18.9984032000000      amu
  | Found l_max for Hartree potential  :   4
  | Found cutoff potl. onset [A], width [A], scale factor :    3.50000    1.50000    1.00000
  | Threshold for basis-dependent cutoff potential is   0.100000E-03
  | Found data for basic radial integration grid :    37 points, outermost radius =    5.000 A
  | Found multiplier for basic radial grid :   1
  | Found angular grid specification: user-specified.
  | Specified grid contains     4 separate shells.
  | Check grid settings after all constraints further below.
  | Found free-atom valence shell :  2 s   2.000
  | Found free-atom valence shell :  2 p   5.000
  | Found free-ion valence shell :  2 s   1.000
  | Found free-ion valence shell :  2 p   4.000
  | Found hydrogenic basis function :  2 p   1.700
  | Found hydrogenic basis function :  3 d   7.400
  | Found hydrogenic basis function :  3 s   6.800
  Species F                   : Missing cutoff potential type.
  Defaulting to exp(1/x)/(1-x)^2 type cutoff potential.
  Species F : No 'logarithmic' tag. Using default grid for free atom:
  | Default logarithmic grid data [bohr] : 0.1000E-03 0.1000E+03 0.1012E+01
  Species F : On-site basis accuracy parameter (for Gram-Schmidt orthonormalisation) not specified.
  Using default value basis_acc =  0.1000000E-03.
  Species F                   : Using default innermost maximum threshold i_radial=  2 for radial functions.
  Species F                   : Default cutoff onset for free atom density etc. : 0.35000000E+01 AA.
  Species F                   : Basic radial grid will be enhanced according to radial_multiplier =   1, to contain    37 grid points.
 
  Finished reading input file 'control.in'.
 
------------------------------------------------------------


------------------------------------------------------------
          Reading geometry description geometry.in.
------------------------------------------------------------
  | The smallest distance between any two atoms is         1.77974950 AA.
  | The first atom of this pair is atom number                      1 .
  | The second atom of this pair is atom number                    12 .
  Input structure read successfully.
  The structure contains       12 atoms,  and a total of        120.000 electrons.

  Input geometry:
  | No unit cell requested.
  | Atomic structure:
  |       Atom                x [A]            y [A]            z [A]
  |    1: Species Al            1.08066566       -0.11196628        2.44344024
  |    2: Species Al            1.30945440        1.16627740       -0.02177260
  |    3: Species Al           -0.15294918        1.02187696       -2.38906987
  |    4: Species F            -1.59227580       -0.15656694       -2.40730008
  |    5: Species F             1.97195739       -0.44575355        0.78195711
  |    6: Species F             0.31859898        2.02737805       -3.78770119
  |    7: Species F            -0.25835143        2.01956648       -0.77660310
  |    8: Species F             2.68529175        2.35246891       -0.13754424
  |    9: Species F             1.32593422        0.09294393       -1.62752118
  |   10: Species F             0.38767007        1.48086742        1.63287550
  |   11: Species F             2.33186433        0.34857662        3.72121061
  |   12: Species F            -0.22731644       -1.29476486        2.68360399

 
  Finished reading input file 'control.in'.
 

------------------------------------------------------------
          Reading geometry description geometry.in.
------------------------------------------------------------
 
  Consistency checks for stacksize environment parameter are next.
 
  | Maximum stacksize for task 0: unlimited
  | Maximum stacksize for task 1: unlimited
  | Maximum stacksize for task 2: unlimited
  | Maximum stacksize for task 3: unlimited
  | Maximum stacksize for task 4: unlimited
  | Maximum stacksize for task 5: unlimited
  | Maximum stacksize for task 6: unlimited
  | Maximum stacksize for task 7: unlimited
  | Maximum stacksize for task 8: unlimited
  | Maximum stacksize for task 9: unlimited
  | Maximum stacksize for task 10: unlimited
  | Maximum stacksize for task 11: unlimited
  | Maximum stacksize for task 12: unlimited
  | Maximum stacksize for task 13: unlimited
  | Maximum stacksize for task 14: unlimited
  | Maximum stacksize for task 15: unlimited
  | Maximum stacksize for task 16: unlimited
  | Maximum stacksize for task 17: unlimited
  | Maximum stacksize for task 18: unlimited
  | Maximum stacksize for task 19: unlimited
  | Maximum stacksize for task 20: unlimited
  | Maximum stacksize for task 21: unlimited
  | Maximum stacksize for task 22: unlimited
  | Maximum stacksize for task 23: unlimited
  | Current stacksize for task 0: unlimited
  | Current stacksize for task 1: unlimited
  | Current stacksize for task 2: unlimited
  | Current stacksize for task 3: unlimited
  | Current stacksize for task 4: unlimited
  | Current stacksize for task 5: unlimited
  | Current stacksize for task 6: unlimited
  | Current stacksize for task 7: unlimited
  | Current stacksize for task 8: unlimited
  | Current stacksize for task 9: unlimited
  | Current stacksize for task 10: unlimited
  | Current stacksize for task 11: unlimited
  | Current stacksize for task 12: unlimited
  | Current stacksize for task 13: unlimited
  | Current stacksize for task 14: unlimited
  | Current stacksize for task 15: unlimited
  | Current stacksize for task 16: unlimited
  | Current stacksize for task 17: unlimited
  | Current stacksize for task 18: unlimited
  | Current stacksize for task 19: unlimited
  | Current stacksize for task 20: unlimited
  | Current stacksize for task 21: unlimited
  | Current stacksize for task 22: unlimited
  | Current stacksize for task 23: unlimited
 
  Consistency checks for the contents of control.in are next.
 
  MPI_IN_PLACE appears to work with this MPI implementation.
  | Keeping use_mpi_in_place .true. (see manual).
  Target number of points in a grid batch is not set. Defaulting to  100
  Method for grid partitioning is not set. Defaulting to parallel hash+maxmin partitioning.
  Batch size limit is not set. Defaulting to    200
  By default, will store active basis functions for each batch.
  If in need of memory, prune_basis_once .false. can be used to disable this option.
  communication_type for Hartree potential was not specified.
  Defaulting to calc_hartree .
  Pulay mixer: Number of initial linear mixing iterations not set.
  Defaulting to    0 iterations.
  Work space size for distributed Hartree potential not set.
  Defaulting to   0.200000E+03 MB.
  Algorithm-dependent basis array size parameters:
  | n_max_pulay                         :       10
  Presetting      1001 iterations before the initial mixing cycle
  is restarted anyway using the sc_init_iter criterion / keyword.
  Presetting a factor      1.000 between actual scf density residual
  and density convergence criterion sc_accuracy_rho below which sc_init_iter
  takes no effect.
  Geometry relaxation not requested: no relaxation will be performed.
  Forces evaluation will include force correction term due to incomplete self-consistency (default).
  Handling of forces: Unphysical translation and rotation will be removed from forces.
  No accuracy limit for integral partition fn. given. Defaulting to  0.1000E-14.
  No threshold value for u(r) in integrations given. Defaulting to  0.1000E-05.
  No accuracy for occupation numbers given. Defaulting to  0.1000E-12.
  No threshold value for occupation numbers given. Defaulting to  0.0000E+00.
  No accuracy for fermi level given. Defaulting to  0.1000E-19.
  Maximum # of iterations to find E_F not set. Defaulting to  200.
  Preferred method for the eigenvalue solver ('KS_method') not specified in 'control.in'.
  Calling BLACS routine to test compilation state
  Since ScaLAPACK support is enabled, defaulting to ELPA (via ELSI).
  Will not use alltoall communication since running on < 1024 CPUs.
  Threshold for basis singularities not set.
  Default threshold for basis singularities:  0.1000E-04
  partition_type (choice of integration weights) for integrals was not specified.
  | Using a version of the partition function of Stratmann and coworkers ('stratmann_sparse').
  | At each grid point, the set of atoms used to build the partition table is smoothly restricted to
  | only those atoms whose free-atom density would be non-zero at that grid point.
  Partitioning for Hartree potential was not defined. Using partition_type for integrals.
  | Adjusted default value of keyword multip_moments_threshold to:       0.10000000E-11
  | This value may affect high angular momentum components of the Hartree potential in periodic systems.
  No q(lm)/r^(l+1) cutoff set for long-range Hartree potential.
  | Using default value of  0.100000E-09 .
  | Verify using the multipole_threshold keyword.
  Defaulting to new monopole extrapolation.
  Density update method: automatic selection selected.
  Charge integration errors on the 3D integration grid will be compensated
  by explicit normalization and distribution of residual charges.
  Use the "compensate_multipole_errors" flag to change this behaviour.
  Set 'collect_eigenvectors' to be '.true.' for use_density_matrix .false.
 
  Consistency checks for the contents of geometry.in are next.
 
  Number of empty states per atom not set in control.in - providing a guess from actual geometry.
  | Total number of empty states used during s.c.f. cycle:       36
  If you use a very high smearing, use empty_states (per atom!) in control.in to increase this value.

  Structure-dependent array size parameters: 
  | Maximum number of distinct radial functions  :       14
  | Maximum number of basis functions            :      180
  | Number of Kohn-Sham states (occupied + empty):       96
------------------------------------------------------------

------------------------------------------------------------
          Preparing all fixed parts of the calculation.
------------------------------------------------------------
  Determining machine precision:
    2.225073858507201E-308
  Setting up grids for atomic and cluster calculations.

  Creating wave function, potential, and density for free atoms.

  Species: Al

  List of occupied orbitals and eigenvalues:
    n    l              occ      energy [Ha]    energy [eV]
    1    0           2.0000       -55.621123     -1513.5278
    2    0           2.0000        -3.957030      -107.6763
    3    0           2.0000        -0.272233        -7.4078
    2    1           6.0000        -2.540949       -69.1427
    3    1           1.0000        -0.083300        -2.2667


  Species: F

  List of occupied orbitals and eigenvalues:
    n    l              occ      energy [Ha]    energy [eV]
    1    0           2.0000       -24.399611      -663.9472
    2    0           2.0000        -1.098702       -29.8972
    2    1           5.0000        -0.408210       -11.1080


  Adding cutoff potential to free-atom effective potential.
  Creating fixed part of basis set: Ionic, confined, hydrogenic.
 
  Al                   ion:

  List of free ionic orbitals and eigenvalues:
    n    l      energy [Ha]    energy [eV]
    1    0       -56.418846     -1535.2349
    2    0        -4.732717      -128.7838
    3    0        -0.872690       -23.7471
    2    1        -3.317230       -90.2664


  List of ionic basis orbitals and eigenvalues:
    n    l      energy [Ha]    energy [eV]    outer radius [A]
    3    2        -0.346815        -9.4373       4.594041
    3    1        -0.631870       -17.1940       4.538221
    3    0        -0.872657       -23.7462       4.538221

 
  F                    hydrogenic:
 
  List of hydrogenic basis orbitals: 
    n    l      effective z      eigenvalue [eV]  inner max. [A]     outer max. [A]     outer radius [A]   
    2    1         1.700000        -9.7616           1.243167           1.243167           4.598524
    3    2         7.400000       -82.7828           0.642437           0.642437           3.305741
    3    0         6.800000       -69.9026           0.057798           1.022307           3.781556
 
  Creating atomic-like basis functions for current effective potential.

  Species Al                  :

  List of atomic basis orbitals and eigenvalues:
    n    l      energy [Ha]    energy [eV]    outer radius [A]
    1    0       -55.621123     -1513.5278       0.850197
    2    0        -3.957030      -107.6763       3.144911
    3    0        -0.272233        -7.4078       4.594041
    2    1        -2.540949       -69.1427       3.731966
    3    1        -0.083300        -2.2667       4.594041


  Species F                   :

  List of atomic basis orbitals and eigenvalues:
    n    l      energy [Ha]    energy [eV]    outer radius [A]
    1    0       -24.399611      -663.9472       1.258458
    2    0        -1.098702       -29.8972       4.325857
    2    1        -0.408210       -11.1080       4.487453

  Assembling full basis from fixed parts.
  | Species Al :   atomic orbital   1 s accepted.
  | Species Al :   atomic orbital   2 s accepted.
  | Species Al :    ionic orbital   3 s accepted.
  | Species Al :   atomic orbital   3 s accepted.
  | Species Al :   atomic orbital   2 p accepted.
  | Species Al :    ionic orbital   3 p accepted.
  | Species Al :   atomic orbital   3 p accepted.
  | Species Al :    ionic orbital   3 d accepted.
  | Species F :   atomic orbital   1 s accepted.
  | Species F :    hydro orbital   3 s accepted.
  | Species F :   atomic orbital   2 s accepted.
  | Species F :   atomic orbital   2 p accepted.
  | Species F :    hydro orbital   2 p accepted.
  | Species F :    hydro orbital   3 d accepted.
 
  Basis size parameters after reduction:
  | Total number of radial functions:       14
  | Total number of basis functions :      180
 
  Per-task memory consumption for arrays in subroutine allocate_ext:
  |           4.807768MB.
  Testing on-site integration grid accuracy.
  |  Species  Function  <phi|h_atom|phi> (log., in eV)  <phi|h_atom|phi> (rad., in eV)
           1        1              -1513.5277717935              -1513.5271881332
           1        2               -107.6762691836               -107.6762662489
           1        3                 -6.9467474784                 -6.9471269649
           1        4                  5.5771951849                  5.4862107220 ***
           1        5                -69.1427313144                -69.1427312731
           1        6                 -1.5197375330                 -1.5230432022
           1        7                  6.8210948310                  6.5529872240 ***
           1        8                  4.3216540965                  4.2851170187 ***
           2        9               -663.9471986398               -663.9470363334
           2       10                 16.8514011578                 16.8512525338
           2       11                -28.4490593856                -28.4490661472
           2       12                -11.1080115307                -11.1080620173
           2       13                  7.1940182175                  7.1685154137
           2       14                 44.8544281765                 44.8543763625
 * Note: Onsite integrals marked "***" above are less accurate than
 * onsite_accuracy_threshold =    0.03000 eV. Usually, this is harmless.
 * When in doubt, tighten the "radial" and/or "radial_multiplier" flags to check.

  Preparing densities etc. for the partition functions (integrals / Hartree potential).

  Preparations completed.
  max(cpu_time)          :      0.184 s.
  Wall clock time (cpu1) :      0.185 s.
------------------------------------------------------------

------------------------------------------------------------
          Begin self-consistency loop: Initialization.

          Date     :  20220517, Time     :  111928.574
------------------------------------------------------------

  Initializing index lists of integration centers etc. from given atomic structure:
  | Number of centers in hartree potential         :        12
  | Number of centers in hartree multipole         :        12
  | Number of centers in electron density summation:        12
  | Number of centers in basis integrals           :        12
  | Number of centers in integrals                 :        12
  | Number of centers in hamiltonian               :        12
  * Using 24 tasks for Scalapack Eigenvalue solver.
  Detailed listing of tasks and assigned k-points:
  (for non-periodic systems, the "k-point" denotes an internal label only)
   Task     0 k-point     1 on node-k98i-010
   Task     1 k-point     1 on node-k98i-010
   Task     2 k-point     1 on node-k98i-010
   Task     3 k-point     1 on node-k98i-010
   Task     4 k-point     1 on node-k98i-010
   Task     5 k-point     1 on node-k98i-010
   Task     6 k-point     1 on node-k98i-010
   Task     7 k-point     1 on node-k98i-010
   Task     8 k-point     1 on node-k98i-010
   Task     9 k-point     1 on node-k98i-010
   Task    10 k-point     1 on node-k98i-010
   Task    11 k-point     1 on node-k98i-010
   Task    12 k-point     1 on node-k98i-010
   Task    13 k-point     1 on node-k98i-010
   Task    14 k-point     1 on node-k98i-010
   Task    15 k-point     1 on node-k98i-010
   Task    16 k-point     1 on node-k98i-010
   Task    17 k-point     1 on node-k98i-010
   Task    18 k-point     1 on node-k98i-010
   Task    19 k-point     1 on node-k98i-010
   Task    20 k-point     1 on node-k98i-010
   Task    21 k-point     1 on node-k98i-010
   Task    22 k-point     1 on node-k98i-010
   Task    23 k-point     1 on node-k98i-010
  Tasks:    24 split into      6 X      4 BLACS grid
  Calculating block size based on n_basis =          180  max_nprow =            6  max_npcol =            4
  ScaLAPACK block size set to:           16
  Allocating        0.012 MB for ovlp
  Allocating        0.012 MB for ham
  Allocating        0.012 MB for eigenvec
  Required Scalapack workspace - INTEGER:            1  REAL:             1
  Partitioning the integration grid into batches with parallel hashing+maxmin method.
  | Number of batches:     1072
  | Maximal batch size:     200
  | Minimal batch size:      24
  | Average batch size:      85.746
  | Standard deviation of batch sizes:      26.492

  Integration load balanced across    24 MPI tasks.
  Work distribution over tasks is as follows:
  Task     0 has       3873 integration points.
  Task     1 has       3812 integration points.
  Task     2 has       3833 integration points.
  Task     3 has       3743 integration points.
  Task     4 has       3910 integration points.
  Task     5 has       3892 integration points.
  Task     6 has       3887 integration points.
  Task     7 has       3887 integration points.
  Task     8 has       3882 integration points.
  Task     9 has       3895 integration points.
  Task    10 has       3810 integration points.
  Task    11 has       3880 integration points.
  Task    12 has       3884 integration points.
  Task    13 has       3798 integration points.
  Task    14 has       3898 integration points.
  Task    15 has       3746 integration points.
  Task    16 has       3900 integration points.
  Task    17 has       3744 integration points.
  Task    18 has       3806 integration points.
  Task    19 has       3744 integration points.
  Task    20 has       3791 integration points.
  Task    21 has       3815 integration points.
  Task    22 has       3742 integration points.
  Task    23 has       3748 integration points.
  Initializing partition tables, free-atom densities, potentials, etc. across the integration grid (initialize_grid_storage).
  | initialize_grid_storage: Actual outermost partition radius vs. multipole_radius_free
  | (-- VB: in principle, multipole_radius_free should be larger, hence this output)
  | Species        1: Confinement radius =              4.999999999999999 AA, multipole_radius_free =              5.004487022111096 AA.
  | Species        1: outer_partition_radius set to              5.004487022111096 AA .
  | Species        2: Confinement radius =              4.999999999999999 AA, multipole_radius_free =              5.009370088163274 AA.
  | Species        2: outer_partition_radius set to              5.009370088163274 AA .
  | The sparse table of interatomic distances needs          1.64 kbyte instead of         1.15 kbyte of memory.
  | Using the partition_type stratmann_smoother will reduce your memory usage.
  | Net number of integration points:    91920
  | of which are non-zero points    :    85900
  Renormalizing the initial density to the exact electron count on the 3D integration grid.
  | Initial density: Formal number of electrons (from input files) :     120.0000000000
  | Integrated number of electrons on 3D grid     :     119.9999045778
  | Charge integration error                      :      -0.0000954222
  | Normalization factor for density and gradient :       1.0000007952
  Renormalizing the free-atom superposition density to the exact electron count on the 3D integration grid.
  | Formal number of electrons (from input files) :     120.0000000000
  | Integrated number of electrons on 3D grid     :     119.9999045778
  | Charge integration error                      :      -0.0000954222
  | Normalization factor for density and gradient :       1.0000007952
  Obtaining max. number of non-zero basis functions in each batch (get_n_compute_maxes).
  | Maximal number of non-zero basis functions:      159 in task     0
  | Maximal number of non-zero basis functions:      159 in task     1
  | Maximal number of non-zero basis functions:      157 in task     2
  | Maximal number of non-zero basis functions:      160 in task     3
  | Maximal number of non-zero basis functions:      160 in task     4
  | Maximal number of non-zero basis functions:      158 in task     5
  | Maximal number of non-zero basis functions:      163 in task     6
  | Maximal number of non-zero basis functions:      160 in task     7
  | Maximal number of non-zero basis functions:      165 in task     8
  | Maximal number of non-zero basis functions:      160 in task     9
  | Maximal number of non-zero basis functions:      165 in task    10
  | Maximal number of non-zero basis functions:      161 in task    11
  | Maximal number of non-zero basis functions:      163 in task    12
  | Maximal number of non-zero basis functions:      161 in task    13
  | Maximal number of non-zero basis functions:      158 in task    14
  | Maximal number of non-zero basis functions:      161 in task    15
  | Maximal number of non-zero basis functions:      163 in task    16
  | Maximal number of non-zero basis functions:      158 in task    17
  | Maximal number of non-zero basis functions:      164 in task    18
  | Maximal number of non-zero basis functions:      162 in task    19
  | Maximal number of non-zero basis functions:      165 in task    20
  | Maximal number of non-zero basis functions:      159 in task    21
  | Maximal number of non-zero basis functions:      162 in task    22
  | Maximal number of non-zero basis functions:      160 in task    23
  Selecting the method for density update.
  Loop over occupied states selected for charge density update.
  Allocating        0.132 MB for KS_eigenvector
  Integrating Hamiltonian matrix: batch-based integration.
  Time summed over all CPUs for integration: real work        0.682 s, elapsed        0.724 s
  Integrating overlap matrix.
  Time summed over all CPUs for integration: real work        0.262 s, elapsed        0.281 s
  Deallocating overlap matrix.

  Updating Kohn-Sham eigenvalues and eigenvectors using ELSI and the ELPA eigensolver.
  Overlap matrix is not singular
  | Lowest and highest eigenvalues :  0.3484E-02,  0.4842E+01
  Finished singularity check of overlap matrix
  | Time :     0.004 s
  Starting ELPA eigensolver
  Finished Cholesky decomposition
  | Time :     0.002 s
  Finished transformation to standard eigenproblem
  | Time :     0.000 s
  Finished solving standard eigenproblem
  | Time :     0.004 s
  Finished back-transformation of eigenvectors
  | Time :     0.000 s

  Obtaining occupation numbers and chemical potential using ELSI.
  | Chemical potential (Fermi level):    -7.65336664 eV
  Writing Kohn-Sham eigenvalues.

  State    Occupation    Eigenvalue [Ha]    Eigenvalue [eV]
      1       2.00000         -55.485537        -1509.83829
      2       2.00000         -55.483887        -1509.79339
      3       2.00000         -55.483883        -1509.79326
      4       2.00000         -24.359141         -662.84594
      5       2.00000         -24.358967         -662.84122
      6       2.00000         -24.358945         -662.84061
      7       2.00000         -24.358890         -662.83912
      8       2.00000         -24.345038         -662.46219
      9       2.00000         -24.344240         -662.44046
     10       2.00000         -24.340081         -662.32731
     11       2.00000         -24.337129         -662.24697
     12       2.00000         -24.335704         -662.20819
     13       2.00000          -3.951124         -107.51556
     14       2.00000          -3.948935         -107.45598
     15       2.00000          -3.948926         -107.45573
     16       2.00000          -2.543642          -69.21603
     17       2.00000          -2.542910          -69.19611
     18       2.00000          -2.542484          -69.18452
     19       2.00000          -2.541659          -69.16206
     20       2.00000          -2.541639          -69.16152
     21       2.00000          -2.541065          -69.14589
     22       2.00000          -2.540936          -69.14239
     23       2.00000          -2.539723          -69.10938
     24       2.00000          -2.539644          -69.10722
     25       2.00000          -1.189729          -32.37418
     26       2.00000          -1.180072          -32.11139
     27       2.00000          -1.177220          -32.03379
     28       2.00000          -1.169375          -31.82032
     29       2.00000          -1.155283          -31.43686
     30       2.00000          -1.154171          -31.40659
     31       2.00000          -1.148326          -31.24754
     32       2.00000          -1.143970          -31.12900
     33       2.00000          -1.141935          -31.07364
     34       2.00000          -0.555229          -15.10854
     35       2.00000          -0.548211          -14.91757
     36       2.00000          -0.538028          -14.64049
     37       2.00000          -0.531952          -14.47514
     38       2.00000          -0.514799          -14.00838
     39       2.00000          -0.503424          -13.69885
     40       2.00000          -0.499147          -13.58249
     41       2.00000          -0.495174          -13.47436
     42       2.00000          -0.492307          -13.39637
     43       2.00000          -0.487159          -13.25628
     44       2.00000          -0.483401          -13.15402
     45       2.00000          -0.481759          -13.10934
     46       2.00000          -0.479487          -13.04749
     47       2.00000          -0.475577          -12.94111
     48       2.00000          -0.474371          -12.90831
     49       2.00000          -0.471330          -12.82554
     50       2.00000          -0.465684          -12.67191
     51       2.00000          -0.457359          -12.44537
     52       2.00000          -0.456267          -12.41565
     53       2.00000          -0.456250          -12.41518
     54       2.00000          -0.454633          -12.37120
     55       2.00000          -0.449365          -12.22785
     56       2.00000          -0.449339          -12.22714
     57       2.00000          -0.446535          -12.15084
     58       2.00000          -0.445831          -12.13167
     59       2.00000          -0.444909          -12.10658
     60       2.00000          -0.444051          -12.08324
     61       0.00000          -0.136973           -3.72724
     62       0.00000          -0.108449           -2.95106
     63       0.00000          -0.062220           -1.69309
     64       0.00000          -0.027018           -0.73519
     65       0.00000          -0.022224           -0.60474
     66       0.00000          -0.007780           -0.21169
     67       0.00000          -0.006014           -0.16366
     68       0.00000           0.038459            1.04652
     69       0.00000           0.048154            1.31035
     70       0.00000           0.064292            1.74947
     71       0.00000           0.082271            2.23870
     72       0.00000           0.118550            3.22590
     73       0.00000           0.144482            3.93156
     74       0.00000           0.152985            4.16292
     75       0.00000           0.172608            4.69691
     76       0.00000           0.173873            4.73133
     77       0.00000           0.174842            4.75768
     78       0.00000           0.180814            4.92019
     79       0.00000           0.190184            5.17518
     80       0.00000           0.201713            5.48889
     81       0.00000           0.206335            5.61467
     82       0.00000           0.214299            5.83136
     83       0.00000           0.224574            6.11096
     84       0.00000           0.232483            6.32617
     85       0.00000           0.250766            6.82370
     86       0.00000           0.266881            7.26220
     87       0.00000           0.269218            7.32578
     88       0.00000           0.272651            7.41920
     89       0.00000           0.281003            7.64649
     90       0.00000           0.291491            7.93187
     91       0.00000           0.294151            8.00426
     92       0.00000           0.303764            8.26585
     93       0.00000           0.337555            9.18534
     94       0.00000           0.348071            9.47150
     95       0.00000           0.362487            9.86377
     96       0.00000           0.373340           10.15910

  Highest occupied state (VBM) at    -12.08324188 eV
  | Occupation number:      2.00000000

  Lowest unoccupied state (CBM) at    -3.72723542 eV
  | Occupation number:      0.00000000

  Overall HOMO-LUMO gap:      8.35600646 eV.
  Calculating total energy contributions from superposition of free atom densities.

  Total energy components:
  | Sum of eigenvalues            :        -887.55157349 Ha      -24151.50712983 eV
  | XC energy correction          :        -144.32920930 Ha       -3927.39760880 eV
  | XC potential correction       :         187.92398139 Ha        5113.67171427 eV
  | Free-atom electrostatic energy:        -781.40570219 Ha      -21263.13101267 eV
  | Hartree energy correction     :           0.00000000 Ha           0.00000000 eV
  | Entropy correction            :           0.00000000 Ha           0.00000000 eV
  | ---------------------------
  | Total energy                  :       -1625.36250359 Ha      -44228.36403703 eV
  | Total energy, T -> 0          :       -1625.36250359 Ha      -44228.36403703 eV  <-- do not rely on this value for anything but (periodic) metals
  | Electronic free energy        :       -1625.36250359 Ha      -44228.36403703 eV

  Derived energy quantities:
  | Kinetic energy                :        1627.59527016 Ha       44289.12070675 eV
  | Electrostatic energy          :       -3108.62856445 Ha      -84590.08713498 eV
  | Energy correction for multipole
  | error in Hartree potential    :           0.00000000 Ha           0.00000000 eV
  | Sum of eigenvalues per atom                           :       -2012.62559415 eV
  | Total energy (T->0) per atom                          :       -3685.69700309 eV  <-- do not rely on this value for anything but (periodic) metals
  | Electronic free energy per atom                       :       -3685.69700309 eV
  Initialize hartree_potential_storage
  Max. number of atoms included in rho_multipole:           12

  End scf initialization - timings             :  max(cpu_time)    wall_clock(cpu1)
  | Time for scf. initialization                :        0.109 s           0.109 s
  | Boundary condition initialization           :        0.000 s           0.000 s
  | Integration                                 :        0.044 s           0.043 s
  | Solution of K.-S. eqns.                     :        0.011 s           0.012 s
  | Grid partitioning                           :        0.033 s           0.033 s
  | Preloading free-atom quantities on grid     :        0.014 s           0.015 s
  | Free-atom superposition energy              :        0.005 s           0.005 s
  | Total energy evaluation                     :        0.000 s           0.000 s

  Partial memory accounting:
  | Current value for overall tracked memory usage:
  |   Minimum:        0.273 MB (on task 23)
  |   Maximum:        0.292 MB (on task  0)
  |   Average:        0.287 MB
  | Peak value for overall tracked memory usage:
  |   Minimum:        1.326 MB (on task  2 after allocating wave)
  |   Maximum:        1.383 MB (on task  8 after allocating wave)
  |   Average:        1.350 MB
  | Largest tracked array allocation so far:
  |   Minimum:        0.240 MB (H_times_psi on task  2)
  |   Maximum:        0.417 MB (all_coords on task 14)
  |   Average:        0.269 MB
  Note:  These values currently only include a subset of arrays which are explicitly tracked.
  The "true" memory usage will be greater.
------------------------------------------------------------
  Evaluating new KS density.
  Integration grid: deviation in total charge (<rho> - N_e) =   2.842171E-14

  Time for density update prior                :  max(cpu_time)    wall_clock(cpu1)
  | self-consistency iterative process          :        0.027 s           0.027 s

------------------------------------------------------------
          Begin self-consistency iteration #    1

  Date     :  20220517, Time     :  111928.711
------------------------------------------------------------
  Pulay mixing of updated and previous charge densities.
  Renormalizing the density to the exact electron count on the 3D integration grid.
  | Formal number of electrons (from input files) :     120.0000000000
  | Integrated number of electrons on 3D grid     :     120.0000000000
  | Charge integration error                      :      -0.0000000000
  | Normalization factor for density and gradient :       1.0000000000

  Evaluating partitioned Hartree potential by multipole expansion.
  | Original multipole sum: apparent total charge =  -0.811725E-14
  | Sum of charges compensated after spline to logarithmic grids =   0.100403E-03
  | Analytical far-field extrapolation by fixed multipoles:
  | Hartree multipole sum: apparent total charge =  -0.892898E-14
  Summing up the Hartree potential.
  Time summed over all CPUs for potential: real work        0.379 s, elapsed        0.388 s
  | RMS charge density error from multipole expansion :   0.106605E-01

  Integrating Hamiltonian matrix: batch-based integration.
  Time summed over all CPUs for integration: real work        0.636 s, elapsed        0.671 s

  Updating Kohn-Sham eigenvalues and eigenvectors using ELSI and the ELPA eigensolver.
  Starting ELPA eigensolver
  Finished transformation to standard eigenproblem
  | Time :     0.000 s
  Finished solving standard eigenproblem
  | Time :     0.004 s
  Finished back-transformation of eigenvectors
  | Time :     0.000 s

  Obtaining occupation numbers and chemical potential using ELSI.
  | Chemical potential (Fermi level):    -7.79470034 eV
  Writing Kohn-Sham eigenvalues.

  State    Occupation    Eigenvalue [Ha]    Eigenvalue [eV]
      1       2.00000         -55.656603        -1514.49322
      2       2.00000         -55.642904        -1514.12046
      3       2.00000         -55.641263        -1514.07579
      4       2.00000         -24.227105         -659.25306
      5       2.00000         -24.226713         -659.24241
      6       2.00000         -24.226283         -659.23071
      7       2.00000         -24.226058         -659.22457
      8       2.00000         -24.084253         -655.36587
      9       2.00000         -24.079166         -655.22743
     10       2.00000         -24.068091         -654.92609
     11       2.00000         -24.064704         -654.83392
     12       2.00000         -24.062706         -654.77955
     13       2.00000          -4.095914         -111.45550
     14       2.00000          -4.082065         -111.07865
     15       2.00000          -4.080472         -111.03530
     16       2.00000          -2.690132          -73.20222
     17       2.00000          -2.687989          -73.14389
     18       2.00000          -2.687628          -73.13409
     19       2.00000          -2.675608          -72.80699
     20       2.00000          -2.675278          -72.79803
     21       2.00000          -2.674007          -72.76343
     22       2.00000          -2.673674          -72.75436
     23       2.00000          -2.673245          -72.74271
     24       2.00000          -2.671666          -72.69972
     25       2.00000          -1.159872          -31.56172
     26       2.00000          -1.148258          -31.24569
     27       2.00000          -1.142857          -31.09872
     28       2.00000          -1.133572          -30.84607
     29       2.00000          -1.032239          -28.08866
     30       2.00000          -1.026513          -27.93284
     31       2.00000          -1.015022          -27.62015
     32       2.00000          -1.009040          -27.45737
     33       2.00000          -1.007061          -27.40352
     34       2.00000          -0.543795          -14.79742
     35       2.00000          -0.531328          -14.45816
     36       2.00000          -0.518437          -14.10739
     37       2.00000          -0.511556          -13.92014
     38       2.00000          -0.484785          -13.19168
     39       2.00000          -0.468501          -12.74856
     40       2.00000          -0.466077          -12.68261
     41       2.00000          -0.445509          -12.12292
     42       2.00000          -0.444919          -12.10687
     43       2.00000          -0.442341          -12.03671
     44       2.00000          -0.437522          -11.90557
     45       2.00000          -0.425049          -11.56618
     46       2.00000          -0.402124          -10.94236
     47       2.00000          -0.395521          -10.76267
     48       2.00000          -0.374938          -10.20258
     49       2.00000          -0.366681           -9.97791
     50       2.00000          -0.363538           -9.89236
     51       2.00000          -0.341232           -9.28540
     52       2.00000          -0.341127           -9.28253
     53       2.00000          -0.336365           -9.15295
     54       2.00000          -0.335943           -9.14147
     55       2.00000          -0.324452           -8.82879
     56       2.00000          -0.323200           -8.79472
     57       2.00000          -0.319418           -8.69180
     58       2.00000          -0.317381           -8.63638
     59       2.00000          -0.317333           -8.63508
     60       2.00000          -0.315591           -8.58766
     61       0.00000          -0.146614           -3.98956
     62       0.00000          -0.105687           -2.87588
     63       0.00000          -0.069846           -1.90061
     64       0.00000          -0.040126           -1.09189
     65       0.00000          -0.034685           -0.94381
     66       0.00000          -0.016605           -0.45184
     67       0.00000          -0.013680           -0.37226
     68       0.00000           0.025212            0.68605
     69       0.00000           0.033662            0.91599
     70       0.00000           0.059963            1.63169
     71       0.00000           0.062544            1.70192
     72       0.00000           0.104998            2.85713
     73       0.00000           0.137192            3.73320
     74       0.00000           0.144203            3.92396
     75       0.00000           0.168060            4.57314
     76       0.00000           0.173742            4.72775
     77       0.00000           0.176018            4.78968
     78       0.00000           0.180580            4.91384
     79       0.00000           0.192873            5.24835
     80       0.00000           0.197432            5.37240
     81       0.00000           0.202291            5.50463
     82       0.00000           0.215000            5.85045
     83       0.00000           0.215550            5.86541
     84       0.00000           0.226054            6.15124
     85       0.00000           0.239904            6.52811
     86       0.00000           0.248267            6.75569
     87       0.00000           0.251838            6.85286
     88       0.00000           0.255842            6.96180
     89       0.00000           0.264014            7.18418
     90       0.00000           0.271730            7.39416
     91       0.00000           0.295994            8.05442
     92       0.00000           0.306299            8.33481
     93       0.00000           0.321651            8.75256
     94       0.00000           0.359253            9.77578
     95       0.00000           0.368837           10.03657
     96       0.00000           0.370113           10.07129

  Highest occupied state (VBM) at     -8.58765510 eV
  | Occupation number:      2.00000000

  Lowest unoccupied state (CBM) at    -3.98956294 eV
  | Occupation number:      0.00000000

  Overall HOMO-LUMO gap:      4.59809216 eV.

  Total energy components:
  | Sum of eigenvalues            :        -882.28524806 Ha      -24008.20312353 eV
  | XC energy correction          :        -145.65440493 Ha       -3963.45801680 eV
  | XC potential correction       :         189.66606992 Ha        5161.07635518 eV
  | Free-atom electrostatic energy:        -781.40570219 Ha      -21263.13101267 eV
  | Hartree energy correction     :          -5.47543937 Ha        -148.99428589 eV
  | Entropy correction            :           0.00000000 Ha           0.00000000 eV
  | ---------------------------
  | Total energy                  :       -1625.15472462 Ha      -44222.71008371 eV
  | Total energy, T -> 0          :       -1625.15472462 Ha      -44222.71008371 eV  <-- do not rely on this value for anything but (periodic) metals
  | Electronic free energy        :       -1625.15472462 Ha      -44222.71008371 eV

  Derived energy quantities:
  | Kinetic energy                :        1633.91365004 Ha       44461.05257104 eV
  | Electrostatic energy          :       -3113.41396973 Ha      -84720.30463796 eV
  | Energy correction for multipole
  | error in Hartree potential    :           0.04144269 Ha           1.12771304 eV
  | Sum of eigenvalues per atom                           :       -2000.68359363 eV
  | Total energy (T->0) per atom                          :       -3685.22584031 eV  <-- do not rely on this value for anything but (periodic) metals
  | Electronic free energy per atom                       :       -3685.22584031 eV
  Evaluating new KS density.
  Integration grid: deviation in total charge (<rho> - N_e) =   5.684342E-14

  Self-consistency convergence accuracy:
  | Change of charge density      :  0.5966E+00
  | Change of sum of eigenvalues  :  0.1433E+03 eV
  | Change of total energy        :  0.5654E+01 eV


------------------------------------------------------------
  End self-consistency iteration #     1       :  max(cpu_time)    wall_clock(cpu1)
  | Time for this iteration                     :        0.078 s           0.078 s
  | Charge density update                       :        0.026 s           0.026 s
  | Density mixing                              :        0.001 s           0.000 s
  | Hartree multipole update                    :        0.002 s           0.002 s
  | Hartree multipole summation                 :        0.017 s           0.016 s
  | Integration                                 :        0.028 s           0.029 s
  | Solution of K.-S. eqns.                     :        0.004 s           0.004 s
  | Total energy evaluation                     :        0.000 s           0.000 s

  Partial memory accounting:
  | Current value for overall tracked memory usage:
  |   Minimum:        0.273 MB (on task 23)
  |   Maximum:        0.292 MB (on task  0)
  |   Average:        0.287 MB
  | Peak value for overall tracked memory usage:
  |   Minimum:        1.326 MB (on task  2 after allocating wave)
  |   Maximum:        1.383 MB (on task  8 after allocating wave)
  |   Average:        1.350 MB
  | Largest tracked array allocation so far:
  |   Minimum:        0.719 MB (gradient_basis_wave on task  2)
  |   Maximum:        0.755 MB (gradient_basis_wave on task  8)
  |   Average:        0.737 MB
  Note:  These values currently only include a subset of arrays which are explicitly tracked.
  The "true" memory usage will be greater.
------------------------------------------------------------

------------------------------------------------------------
          Begin self-consistency iteration #    2

  Date     :  20220517, Time     :  111928.794
------------------------------------------------------------
  Pulay mixing of updated and previous charge densities.
  Renormalizing the density to the exact electron count on the 3D integration grid.
  | Formal number of electrons (from input files) :     120.0000000000
  | Integrated number of electrons on 3D grid     :     120.0000000000
  | Charge integration error                      :       0.0000000000
  | Normalization factor for density and gradient :       1.0000000000

  Evaluating partitioned Hartree potential by multipole expansion.
  | Original multipole sum: apparent total charge =   0.914052E-13
  | Sum of charges compensated after spline to logarithmic grids =   0.623450E-04
  | Analytical far-field extrapolation by fixed multipoles:
  | Hartree multipole sum: apparent total charge =   0.914544E-13
  Summing up the Hartree potential.
  Time summed over all CPUs for potential: real work        0.378 s, elapsed        0.386 s
  | RMS charge density error from multipole expansion :   0.125200E-01

  Integrating Hamiltonian matrix: batch-based integration.
  Time summed over all CPUs for integration: real work        0.636 s, elapsed        0.672 s

  Updating Kohn-Sham eigenvalues and eigenvectors using ELSI and the ELPA eigensolver.
  Starting ELPA eigensolver
  Finished transformation to standard eigenproblem
  | Time :     0.001 s
  Finished solving standard eigenproblem
  | Time :     0.003 s
  Finished back-transformation of eigenvectors
  | Time :     0.000 s

  Obtaining occupation numbers and chemical potential using ELSI.
  | Chemical potential (Fermi level):    -7.83986041 eV
  Highest occupied state (VBM) at     -9.79639766 eV
  | Occupation number:      2.00000000

  Lowest unoccupied state (CBM) at    -4.19882358 eV
  | Occupation number:      0.00000000

  Overall HOMO-LUMO gap:      5.59757408 eV.

  Checking to see if s.c.f. parameters should be adjusted.

  Total energy components:
  | Sum of eigenvalues            :        -885.41202006 Ha      -24093.28691867 eV
  | XC energy correction          :        -145.16149499 Ha       -3950.04525468 eV
  | XC potential correction       :         189.01754084 Ha        5143.42898095 eV
  | Free-atom electrostatic energy:        -781.40570219 Ha      -21263.13101267 eV
  | Hartree energy correction     :          -2.12912354 Ha         -57.93639936 eV
  | Entropy correction            :           0.00000000 Ha           0.00000000 eV
  | ---------------------------
  | Total energy                  :       -1625.09079993 Ha      -44220.97060444 eV
  | Total energy, T -> 0          :       -1625.09079993 Ha      -44220.97060444 eV  <-- do not rely on this value for anything but (periodic) metals
  | Electronic free energy        :       -1625.09079993 Ha      -44220.97060444 eV

  Derived energy quantities:
  | Kinetic energy                :        1630.04114029 Ha       44355.67621915 eV
  | Electrostatic energy          :       -3109.97044523 Ha      -84626.60156890 eV
  | Energy correction for multipole
  | error in Hartree potential    :           0.04557426 Ha           1.24013864 eV
  | Sum of eigenvalues per atom                           :       -2007.77390989 eV
  | Total energy (T->0) per atom                          :       -3685.08088370 eV  <-- do not rely on this value for anything but (periodic) metals
  | Electronic free energy per atom                       :       -3685.08088370 eV
  Evaluating new KS density.
  Integration grid: deviation in total charge (<rho> - N_e) =   0.000000E+00

  Self-consistency convergence accuracy:
  | Change of charge density      :  0.4749E+00
  | Change of sum of eigenvalues  : -0.8508E+02 eV
  | Change of total energy        :  0.1739E+01 eV


------------------------------------------------------------
  End self-consistency iteration #     2       :  max(cpu_time)    wall_clock(cpu1)
  | Time for this iteration                     :        0.081 s           0.079 s
  | Charge density update                       :        0.026 s           0.026 s
  | Density mixing                              :        0.004 s           0.002 s
  | Hartree multipole update                    :        0.001 s           0.002 s
  | Hartree multipole summation                 :        0.016 s           0.016 s
  | Integration                                 :        0.028 s           0.028 s
  | Solution of K.-S. eqns.                     :        0.004 s           0.005 s
  | Total energy evaluation                     :        0.000 s           0.000 s

  Partial memory accounting:
  | Current value for overall tracked memory usage:
  |   Minimum:        0.274 MB (on task 23)
  |   Maximum:        0.293 MB (on task  0)
  |   Average:        0.288 MB
  | Peak value for overall tracked memory usage:
  |   Minimum:        1.326 MB (on task  2 after allocating wave)
  |   Maximum:        1.383 MB (on task  8 after allocating wave)
  |   Average:        1.350 MB
  | Largest tracked array allocation so far:
  |   Minimum:        0.719 MB (gradient_basis_wave on task  2)
  |   Maximum:        0.755 MB (gradient_basis_wave on task  8)
  |   Average:        0.737 MB
  Note:  These values currently only include a subset of arrays which are explicitly tracked.
  The "true" memory usage will be greater.
------------------------------------------------------------

------------------------------------------------------------
          Begin self-consistency iteration #    3

  Date     :  20220517, Time     :  111928.880
------------------------------------------------------------
  Pulay mixing of updated and previous charge densities.
  Renormalizing the density to the exact electron count on the 3D integration grid.
  | Formal number of electrons (from input files) :     120.0000000000
  | Integrated number of electrons on 3D grid     :     120.0000000000
  | Charge integration error                      :      -0.0000000000
  | Normalization factor for density and gradient :       1.0000000000

  Evaluating partitioned Hartree potential by multipole expansion.
  | Original multipole sum: apparent total charge =   0.178580E-13
  | Sum of charges compensated after spline to logarithmic grids =   0.804708E-04
  | Analytical far-field extrapolation by fixed multipoles:
  | Hartree multipole sum: apparent total charge =   0.176858E-13
  Summing up the Hartree potential.
  Time summed over all CPUs for potential: real work        0.378 s, elapsed        0.386 s
  | RMS charge density error from multipole expansion :   0.173002E-01

  Integrating Hamiltonian matrix: batch-based integration.
  Time summed over all CPUs for integration: real work        0.636 s, elapsed        0.672 s

  Updating Kohn-Sham eigenvalues and eigenvectors using ELSI and the ELPA eigensolver.
  Starting ELPA eigensolver
  Finished transformation to standard eigenproblem
  | Time :     0.000 s
  Finished solving standard eigenproblem
  | Time :     0.003 s
  Finished back-transformation of eigenvectors
  | Time :     0.000 s

  Obtaining occupation numbers and chemical potential using ELSI.
  | Chemical potential (Fermi level):    -8.04702024 eV
  Highest occupied state (VBM) at     -9.44293220 eV
  | Occupation number:      2.00000000

  Lowest unoccupied state (CBM) at    -4.40535067 eV
  | Occupation number:      0.00000000

  Overall HOMO-LUMO gap:      5.03758153 eV.

  Total energy components:
  | Sum of eigenvalues            :        -886.40303190 Ha      -24120.25372310 eV
  | XC energy correction          :        -145.12661199 Ha       -3949.09603992 eV
  | XC potential correction       :         188.97038335 Ha        5142.14576053 eV
  | Free-atom electrostatic energy:        -781.40570219 Ha      -21263.13101267 eV
  | Hartree energy correction     :          -1.12528788 Ha         -30.62064110 eV
  | Entropy correction            :           0.00000000 Ha           0.00000000 eV
  | ---------------------------
  | Total energy                  :       -1625.09025060 Ha      -44220.95565625 eV
  | Total energy, T -> 0          :       -1625.09025060 Ha      -44220.95565625 eV  <-- do not rely on this value for anything but (periodic) metals
  | Electronic free energy        :       -1625.09025060 Ha      -44220.95565625 eV

  Derived energy quantities:
  | Kinetic energy                :        1628.31360515 Ha       44308.66759643 eV
  | Electrostatic energy          :       -3108.27724377 Ha      -84580.52721276 eV
  | Energy correction for multipole
  | error in Hartree potential    :           0.06144283 Ha           1.67194435 eV
  | Sum of eigenvalues per atom                           :       -2010.02114359 eV
  | Total energy (T->0) per atom                          :       -3685.07963802 eV  <-- do not rely on this value for anything but (periodic) metals
  | Electronic free energy per atom                       :       -3685.07963802 eV
  Evaluating new KS density.
  Integration grid: deviation in total charge (<rho> - N_e) =   5.684342E-14

  Self-consistency convergence accuracy:
  | Change of charge density      :  0.1237E+00
  | Change of sum of eigenvalues  : -0.2697E+02 eV
  | Change of total energy        :  0.1495E-01 eV


------------------------------------------------------------
  End self-consistency iteration #     3       :  max(cpu_time)    wall_clock(cpu1)
  | Time for this iteration                     :        0.081 s           0.077 s
  | Charge density update                       :        0.026 s           0.026 s
  | Density mixing                              :        0.004 s           0.000 s
  | Hartree multipole update                    :        0.001 s           0.002 s
  | Hartree multipole summation                 :        0.016 s           0.016 s
  | Integration                                 :        0.028 s           0.028 s
  | Solution of K.-S. eqns.                     :        0.004 s           0.005 s
  | Total energy evaluation                     :        0.000 s           0.000 s

  Partial memory accounting:
  | Current value for overall tracked memory usage:
  |   Minimum:        0.274 MB (on task 23)
  |   Maximum:        0.293 MB (on task  0)
  |   Average:        0.288 MB
  | Peak value for overall tracked memory usage:
  |   Minimum:        1.326 MB (on task  2 after allocating wave)
  |   Maximum:        1.383 MB (on task  8 after allocating wave)
  |   Average:        1.350 MB
  | Largest tracked array allocation so far:
  |   Minimum:        0.719 MB (gradient_basis_wave on task  2)
  |   Maximum:        0.755 MB (gradient_basis_wave on task  8)
  |   Average:        0.737 MB
  Note:  These values currently only include a subset of arrays which are explicitly tracked.
  The "true" memory usage will be greater.
------------------------------------------------------------

------------------------------------------------------------
          Begin self-consistency iteration #    4

  Date     :  20220517, Time     :  111928.963
------------------------------------------------------------
  Pulay mixing of updated and previous charge densities.
  Renormalizing the density to the exact electron count on the 3D integration grid.
  | Formal number of electrons (from input files) :     120.0000000000
  | Integrated number of electrons on 3D grid     :     120.0000000000
  | Charge integration error                      :       0.0000000000
  | Normalization factor for density and gradient :       1.0000000000

  Evaluating partitioned Hartree potential by multipole expansion.
  | Original multipole sum: apparent total charge =   0.449647E-13
  | Sum of charges compensated after spline to logarithmic grids =   0.869984E-04
  | Analytical far-field extrapolation by fixed multipoles:
  | Hartree multipole sum: apparent total charge =   0.428001E-13
  Summing up the Hartree potential.
  Time summed over all CPUs for potential: real work        0.378 s, elapsed        0.386 s
  | RMS charge density error from multipole expansion :   0.192495E-01

  Integrating Hamiltonian matrix: batch-based integration.
  Time summed over all CPUs for integration: real work        0.636 s, elapsed        0.672 s

  Updating Kohn-Sham eigenvalues and eigenvectors using ELSI and the ELPA eigensolver.
  Starting ELPA eigensolver
  Finished transformation to standard eigenproblem
  | Time :     0.000 s
  Finished solving standard eigenproblem
  | Time :     0.003 s
  Finished back-transformation of eigenvectors
  | Time :     0.000 s

  Obtaining occupation numbers and chemical potential using ELSI.
  | Chemical potential (Fermi level):    -7.99539168 eV
  Highest occupied state (VBM) at     -9.59600479 eV
  | Occupation number:      2.00000000

  Lowest unoccupied state (CBM) at    -4.35706890 eV
  | Occupation number:      0.00000000

  Overall HOMO-LUMO gap:      5.23893589 eV.

  Total energy components:
  | Sum of eigenvalues            :        -886.52969881 Ha      -24123.70050509 eV
  | XC energy correction          :        -145.11158936 Ha       -3948.68725348 eV
  | XC potential correction       :         188.94998295 Ha        5141.59063743 eV
  | Free-atom electrostatic energy:        -781.40570219 Ha      -21263.13101267 eV
  | Hartree energy correction     :          -0.99118846 Ha         -26.97161025 eV
  | Entropy correction            :           0.00000000 Ha           0.00000000 eV
  | ---------------------------
  | Total energy                  :       -1625.08819586 Ha      -44220.89974406 eV
  | Total energy, T -> 0          :       -1625.08819586 Ha      -44220.89974406 eV  <-- do not rely on this value for anything but (periodic) metals
  | Electronic free energy        :       -1625.08819586 Ha      -44220.89974406 eV

  Derived energy quantities:
  | Kinetic energy                :        1627.68345321 Ha       44291.52028948 eV
  | Electrostatic energy          :       -3107.66005971 Ha      -84563.73278006 eV
  | Energy correction for multipole
  | error in Hartree potential    :           0.06744325 Ha           1.83522419 eV
  | Sum of eigenvalues per atom                           :       -2010.30837542 eV
  | Total energy (T->0) per atom                          :       -3685.07497867 eV  <-- do not rely on this value for anything but (periodic) metals
  | Electronic free energy per atom                       :       -3685.07497867 eV
  Evaluating new KS density.
  Integration grid: deviation in total charge (<rho> - N_e) =   1.136868E-13

  Self-consistency convergence accuracy:
  | Change of charge density      :  0.8129E-01
  | Change of sum of eigenvalues  : -0.3447E+01 eV
  | Change of total energy        :  0.5591E-01 eV


------------------------------------------------------------
  End self-consistency iteration #     4       :  max(cpu_time)    wall_clock(cpu1)
  | Time for this iteration                     :        0.081 s           0.078 s
  | Charge density update                       :        0.026 s           0.026 s
  | Density mixing                              :        0.004 s           0.002 s
  | Hartree multipole update                    :        0.001 s           0.001 s
  | Hartree multipole summation                 :        0.016 s           0.016 s
  | Integration                                 :        0.028 s           0.029 s
  | Solution of K.-S. eqns.                     :        0.004 s           0.004 s
  | Total energy evaluation                     :        0.000 s           0.000 s

  Partial memory accounting:
  | Current value for overall tracked memory usage:
  |   Minimum:        0.274 MB (on task 23)
  |   Maximum:        0.293 MB (on task  0)
  |   Average:        0.288 MB
  | Peak value for overall tracked memory usage:
  |   Minimum:        1.326 MB (on task  2 after allocating wave)
  |   Maximum:        1.383 MB (on task  8 after allocating wave)
  |   Average:        1.350 MB
  | Largest tracked array allocation so far:
  |   Minimum:        0.719 MB (gradient_basis_wave on task  2)
  |   Maximum:        0.755 MB (gradient_basis_wave on task  8)
  |   Average:        0.737 MB
  Note:  These values currently only include a subset of arrays which are explicitly tracked.
  The "true" memory usage will be greater.
------------------------------------------------------------

------------------------------------------------------------
          Begin self-consistency iteration #    5

  Date     :  20220517, Time     :  111929.047
------------------------------------------------------------
  Pulay mixing of updated and previous charge densities.
  Renormalizing the density to the exact electron count on the 3D integration grid.
  | Formal number of electrons (from input files) :     120.0000000000
  | Integrated number of electrons on 3D grid     :     120.0000000000
  | Charge integration error                      :       0.0000000000
  | Normalization factor for density and gradient :       1.0000000000

  Evaluating partitioned Hartree potential by multipole expansion.
  | Original multipole sum: apparent total charge =   0.803362E-13
  | Sum of charges compensated after spline to logarithmic grids =   0.875066E-04
  | Analytical far-field extrapolation by fixed multipoles:
  | Hartree multipole sum: apparent total charge =   0.803854E-13
  Summing up the Hartree potential.
  Time summed over all CPUs for potential: real work        0.378 s, elapsed        0.386 s
  | RMS charge density error from multipole expansion :   0.190473E-01

  Integrating Hamiltonian matrix: batch-based integration.
  Time summed over all CPUs for integration: real work        0.636 s, elapsed        0.673 s

  Updating Kohn-Sham eigenvalues and eigenvectors using ELSI and the ELPA eigensolver.
  Starting ELPA eigensolver
  Finished transformation to standard eigenproblem
  | Time :     0.001 s
  Finished solving standard eigenproblem
  | Time :     0.003 s
  Finished back-transformation of eigenvectors
  | Time :     0.000 s

  Obtaining occupation numbers and chemical potential using ELSI.
  | Chemical potential (Fermi level):    -7.94495407 eV
  Highest occupied state (VBM) at     -9.63645639 eV
  | Occupation number:      2.00000000

  Lowest unoccupied state (CBM) at    -4.30390533 eV
  | Occupation number:      0.00000000

  Overall HOMO-LUMO gap:      5.33255106 eV.

  Total energy components:
  | Sum of eigenvalues            :        -886.35044079 Ha      -24118.82264597 eV
  | XC energy correction          :        -145.10737870 Ha       -3948.57267568 eV
  | XC potential correction       :         188.94462643 Ha        5141.44487887 eV
  | Free-atom electrostatic energy:        -781.40570219 Ha      -21263.13101267 eV
  | Hartree energy correction     :          -1.16916426 Ha         -31.81457817 eV
  | Entropy correction            :           0.00000000 Ha           0.00000000 eV
[...]
   Total forces(   7)            :  0.135396E+01 -0.158790E+01 -0.903562E+00
  atom #    8
   Hellmann-Feynman              :  0.246408E+01  0.214887E+01 -0.247227E+00
   Ionic forces                  :  0.000000E+00  0.000000E+00  0.000000E+00
   Multipole                     :  0.411795E+00  0.350672E+00 -0.296678E-01
   Hartree pot. SCF incomplete   : -0.302853E-06 -0.260889E-06  0.240199E-07
   Pulay + GGA                   : -0.542733E+01 -0.469185E+01  0.473154E+00
   ----------------------------------------------------------------
   Total forces(   8)            : -0.255145E+01 -0.219231E+01  0.196259E+00
  atom #    9
   Hellmann-Feynman              :  0.513128E+00 -0.101571E+01  0.133636E+00
   Ionic forces                  :  0.000000E+00  0.000000E+00  0.000000E+00
   Multipole                     :  0.368823E+00 -0.300869E+00 -0.255856E+00
   Hartree pot. SCF incomplete   : -0.180292E-06 -0.378348E-06 -0.176064E-05
   Pulay + GGA                   : -0.226698E+01  0.304496E+01  0.666906E+00
   ----------------------------------------------------------------
   Total forces(   9)            : -0.138503E+01  0.172838E+01  0.544685E+00
  atom #   10
   Hellmann-Feynman              : -0.931543E+00  0.616454E+00  0.388552E-01
   Ionic forces                  :  0.000000E+00  0.000000E+00  0.000000E+00
   Multipole                     : -0.224610E+00  0.418141E+00  0.252729E+00
   Hartree pot. SCF incomplete   :  0.573566E-07  0.323436E-06  0.174213E-05
   Pulay + GGA                   :  0.249351E+01 -0.284747E+01 -0.799417E+00
   ----------------------------------------------------------------
   Total forces(  10)            :  0.133736E+01 -0.181288E+01 -0.507831E+00
  atom #   11
   Hellmann-Feynman              :  0.197556E+01  0.768437E+00  0.192342E+01
   Ionic forces                  :  0.000000E+00  0.000000E+00  0.000000E+00
   Multipole                     :  0.521388E+00  0.235433E+00  0.431629E+00
   Hartree pot. SCF incomplete   :  0.667237E-06  0.680744E-06 -0.304322E-06
   Pulay + GGA                   : -0.491975E+01 -0.188352E+01 -0.485046E+01
   ----------------------------------------------------------------
   Total forces(  11)            : -0.242281E+01 -0.879650E+00 -0.249541E+01
  atom #   12
   Hellmann-Feynman              : -0.258168E+01 -0.225403E+01  0.296299E+00
   Ionic forces                  :  0.000000E+00  0.000000E+00  0.000000E+00
   Multipole                     : -0.608615E+00 -0.505209E+00  0.732925E-02
   Hartree pot. SCF incomplete   : -0.190552E-06 -0.187894E-06  0.770078E-07
   Pulay + GGA                   :  0.522479E+01  0.463968E+01 -0.763328E+00
   ----------------------------------------------------------------
   Total forces(  12)            :  0.203449E+01  0.188044E+01 -0.459699E+00


  Self-consistency convergence accuracy:
  | Change of charge density      :  0.1066E-06
  | Change of sum of eigenvalues  : -0.2641E-05 eV
  | Change of total energy        : -0.2166E-08 eV
  | Change of forces              :  0.3183E-06 eV/A

  Writing Kohn-Sham eigenvalues.

  State    Occupation    Eigenvalue [Ha]    Eigenvalue [eV]
      1       2.00000         -55.642748        -1514.11620
      2       2.00000         -55.623271        -1513.58620
      3       2.00000         -55.620768        -1513.51810
      4       2.00000         -24.305129         -661.37621
      5       2.00000         -24.304934         -661.37090
      6       2.00000         -24.303765         -661.33911
      7       2.00000         -24.303600         -661.33461
      8       2.00000         -24.219949         -659.05834
      9       2.00000         -24.215323         -658.93246
     10       2.00000         -24.208296         -658.74126
     11       2.00000         -24.207714         -658.72541
     12       2.00000         -24.205568         -658.66701
     13       2.00000          -4.094762         -111.42414
     14       2.00000          -4.076390         -110.92421
     15       2.00000          -4.073833         -110.85464
     16       2.00000          -2.687714          -73.13643
     17       2.00000          -2.686005          -73.08992
     18       2.00000          -2.685222          -73.06861
     19       2.00000          -2.670183          -72.65938
     20       2.00000          -2.668641          -72.61743
     21       2.00000          -2.667582          -72.58859
     22       2.00000          -2.666053          -72.54700
     23       2.00000          -2.664968          -72.51748
     24       2.00000          -2.662494          -72.45015
     25       2.00000          -1.183163          -32.19551
     26       2.00000          -1.171974          -31.89102
     27       2.00000          -1.167315          -31.76426
     28       2.00000          -1.158297          -31.51886
     29       2.00000          -1.071952          -29.16930
     30       2.00000          -1.066326          -29.01621
     31       2.00000          -1.054453          -28.69313
     32       2.00000          -1.051968          -28.62549
     33       2.00000          -1.048130          -28.52108
     34       2.00000          -0.563988          -15.34689
     35       2.00000          -0.551512          -15.00741
     36       2.00000          -0.539341          -14.67621
     37       2.00000          -0.534192          -14.53610
     38       2.00000          -0.507749          -13.81656
     39       2.00000          -0.490728          -13.35340
     40       2.00000          -0.488476          -13.29211
     41       2.00000          -0.471262          -12.82369
     42       2.00000          -0.467475          -12.72065
     43       2.00000          -0.465106          -12.65619
     44       2.00000          -0.463936          -12.62435
     45       2.00000          -0.448757          -12.21129
     46       2.00000          -0.436205          -11.86974
     47       2.00000          -0.429777          -11.69482
     48       2.00000          -0.411465          -11.19654
     49       2.00000          -0.406540          -11.06251
     50       2.00000          -0.402201          -10.94445
     51       2.00000          -0.377739          -10.27879
     52       2.00000          -0.377567          -10.27413
     53       2.00000          -0.372351          -10.13219
     54       2.00000          -0.372313          -10.13114
     55       2.00000          -0.360657           -9.81396
     56       2.00000          -0.359502           -9.78253
     57       2.00000          -0.358853           -9.76489
     58       2.00000          -0.356851           -9.71042
     59       2.00000          -0.355151           -9.66414
     60       2.00000          -0.353617           -9.62240
     61       0.00000          -0.158132           -4.30300
     62       0.00000          -0.117604           -3.20017
     63       0.00000          -0.079913           -2.17453
     64       0.00000          -0.045878           -1.24840
     65       0.00000          -0.038299           -1.04217
     66       0.00000          -0.019741           -0.53719
     67       0.00000          -0.019299           -0.52516
     68       0.00000           0.019552            0.53205
     69       0.00000           0.028659            0.77985
     70       0.00000           0.055814            1.51878
     71       0.00000           0.056530            1.53826
     72       0.00000           0.100227            2.72733
     73       0.00000           0.130223            3.54354
     74       0.00000           0.142476            3.87696
     75       0.00000           0.162610            4.42483
     76       0.00000           0.166816            4.53930
     77       0.00000           0.168621            4.58841
     78       0.00000           0.176290            4.79709
     79       0.00000           0.186402            5.07225
     80       0.00000           0.190010            5.17045
     81       0.00000           0.196742            5.35362
     82       0.00000           0.209646            5.70475
     83       0.00000           0.211303            5.74984
     84       0.00000           0.218505            5.94582
     85       0.00000           0.234282            6.37513
     86       0.00000           0.244575            6.65523
     87       0.00000           0.248327            6.75733
     88       0.00000           0.249681            6.79416
     89       0.00000           0.258095            7.02312
     90       0.00000           0.268851            7.31582
     91       0.00000           0.289711            7.88344
     92       0.00000           0.301631            8.20780
     93       0.00000           0.318064            8.65497
     94       0.00000           0.350584            9.53986
     95       0.00000           0.360873            9.81985
     96       0.00000           0.364348            9.91441

  Highest occupied state (VBM) at     -9.62240044 eV
  | Occupation number:      2.00000000

  Lowest unoccupied state (CBM) at    -4.30300147 eV
  | Occupation number:      0.00000000

  Overall HOMO-LUMO gap:      5.31939897 eV.
  | Chemical Potential                          :    -7.94532506 eV

  Self-consistency cycle converged.


------------------------------------------------------------
  End self-consistency iteration #    14       :  max(cpu_time)    wall_clock(cpu1)
  | Time for this iteration                     :        0.260 s           0.260 s
  | Charge density & force component update     :        0.139 s           0.139 s
  | Density mixing                              :        0.005 s           0.005 s
  | Hartree multipole update                    :        0.001 s           0.001 s
  | Hartree multipole summation                 :        0.049 s           0.049 s
  | Hartree pot. SCF incomplete forces          :        0.032 s           0.032 s
  | Integration                                 :        0.028 s           0.028 s
  | Solution of K.-S. eqns.                     :        0.004 s           0.004 s
  | Total energy evaluation                     :        0.000 s           0.000 s

  Partial memory accounting:
  | Current value for overall tracked memory usage:
  |   Minimum:        0.274 MB (on task 23)
  |   Maximum:        0.293 MB (on task  0)
  |   Average:        0.289 MB
  | Peak value for overall tracked memory usage:
  |   Minimum:        2.963 MB (on task  2 after allocating hessian_basis_wave)
  |   Maximum:        3.085 MB (on task  8 after allocating hessian_basis_wave)
  |   Average:        3.019 MB
  | Largest tracked array allocation so far:
  |   Minimum:        1.437 MB (hessian_basis_wave on task  2)
  |   Maximum:        1.511 MB (hessian_basis_wave on task  8)
  |   Average:        1.474 MB
  Note:  These values currently only include a subset of arrays which are explicitly tracked.
  The "true" memory usage will be greater.
------------------------------------------------------------
  Removing unitary transformations (pure translations, rotations) from forces on atoms.
  Atomic forces before filtering:
  | Net force on center of mass :   0.733441E-02  0.113988E-02  0.574916E-02 eV/A
  | Net torque on center of mass:  -0.262444E-01  0.378469E-01  0.161897E-01 eV
  Atomic forces after filtering:
  | Net force on center of mass :   0.142725E-14 -0.107044E-14 -0.178406E-15 eV/A
  | Net torque on center of mass:   0.000000E+00 -0.103849E-14  0.755268E-15 eV

  Energy and forces in a compact form:
  | Total energy uncorrected      :         -0.442208958738309E+05 eV
  | Total energy corrected        :         -0.442208958738309E+05 eV  <-- do not rely on this value for anything but (periodic) metals
  | Electronic free energy        :         -0.442208958738309E+05 eV
  Total atomic forces (unitary forces cleaned) [eV/Ang]:
  |    1          0.533939307480200E+00         -0.580648313127309E+00          0.230533623079308E+01
  |    2          0.220082624386318E+01          0.193954577197211E+01         -0.235416329239492E+00
  |    3         -0.178514588111265E+01         -0.677320002908272E+00         -0.183136455571051E+01
  |    4          0.281274292871276E+01          0.227484386431465E+01          0.957947756927515E-01
  |    5         -0.140728529023199E+01          0.153024507462640E+01          0.962667497894647E+00
  |    6         -0.715620882983746E+00         -0.162018280350374E+01          0.233043822014548E+01
  |    7          0.135397606044007E+01         -0.158754251521581E+01         -0.904105525439204E+00
  |    8         -0.255165372180848E+01         -0.219276250248564E+01          0.197146515765205E+00
  |    9         -0.138503404315154E+01          0.172866139087872E+01          0.544272787368085E+00
  |   10          0.133617772375603E+01         -0.181338690230467E+01         -0.508246275670554E+00
  |   11         -0.242517030760425E+01         -0.881198380381574E+00         -0.249528907507485E+01
  |   12          0.203224786264041E+01          0.187974531813514E+01         -0.461234266524633E+00

  ------------------------------------ 
  Start decomposition of the XC Energy 
  ------------------------------------ 
  X and C from original XC functional choice 
  Hartree-Fock Energy :          0.000000000 Ha              0.000000000 eV
  X Energy            :       -140.171350899 Ha          -3814.256525204 eV
  C Energy            :         -4.940008621 Ha           -134.424474007 eV
  Total XC Energy     :       -145.111359520 Ha          -3948.680999211 eV
  ------------------------------------ 
  LDA X and C from self-consistent density 
  X Energy LDA        :       -132.742827302 Ha          -3612.116113330 eV
  C Energy LDA        :         -8.822635069 Ha           -240.076115160 eV
  ------------------------------------ 
  End decomposition of the XC Energy 
  ------------------------------------ 

------------------------------------------------------------

------------------------------------------------------------------------------
  Final output of selected total energy values:

  The following output summarizes some interesting total energy values
  at the end of a run (AFTER all relaxation, molecular dynamics, etc.).

  | Total energy of the DFT / Hartree-Fock s.c.f. calculation      :         -44220.895873831 eV
  | Final zero-broadening corrected energy (caution - metals only) :         -44220.895873831 eV
  | For reference only, the value of 1 Hartree used in FHI-aims is :             27.211384500 eV

  Before relying on these values, please be sure to understand exactly which
  total energy value is referred to by a given number. Different objects may
  all carry the same name 'total energy'. Definitions:

  Total energy of the DFT / Hartree-Fock s.c.f. calculation:
  | Note that this energy does not include ANY quantities calculated after the
  | s.c.f. cycle, in particular not ANY RPA, MP2, etc. many-body perturbation terms.

  Final zero-broadening corrected energy:
  | For metallic systems only, a broadening of the occupation numbers at the Fermi
  | level can be extrapolated back to zero broadening by an electron-gas inspired
  | formula. For all systems that are not real metals, this value can be
  | meaningless and should be avoided.

------------------------------------------------------------------------------
  Methods described in the following list of references were used in this FHI-aims run.
  If you publish the results, please make sure to cite these reference if they apply.
  FHI-aims is an academic code, and for our developers (often, Ph.D. students
  and postdocs), scientific credit in the community is essential.
  Thank you for helping us!

  For any use of FHI-aims, please cite:

    Volker Blum, Ralf Gehrke, Felix Hanke, Paula Havu, Ville Havu,
    Xinguo Ren, Karsten Reuter, and Matthias Scheffler
    'Ab initio molecular simulations with numeric atom-centered orbitals'
    Computer Physics Communications 180, 2175-2196 (2009)
    http://dx.doi.org/10.1016/j.cpc.2009.06.022


  The ELSI infrastructure was used in your run to solve the Kohn-Sham electronic structure.
  Please check out http://elsi-interchange.org to learn more.
  If scalability is important for your project, please acknowledge ELSI by citing:

    V. W-z. Yu, F. Corsetti, A. Garcia, W. P. Huhn, M. Jacquelin, W. Jia,
    B. Lange, L. Lin, J. Lu, W. Mi, A. Seifitokaldani, A. Vazquez-Mayagoitia,
    C. Yang, H. Yang, and V. Blum
    'ELSI: A unified software interface for Kohn-Sham electronic structure solvers'
    Computer Physics Communications 222, 267-285 (2018).
    http://dx.doi.org/10.1016/j.cpc.2017.09.007


  For the real-space grid partitioning and parallelization used in this calculation, please cite:

    Ville Havu, Volker Blum, Paula Havu, and Matthias Scheffler,
    'Efficient O(N) integration for all-electron electronic structure calculation'
    'using numerically tabulated basis functions'
    Journal of Computational Physics 228, 8367-8379 (2009).
    http://dx.doi.org/10.1016/j.jcp.2009.08.008

  Of course, there are many other important community references, e.g., those cited in the
  above references. Our list is limited to references that describe implementations in the
  FHI-aims code. The reason is purely practical (length of this list) - please credit others as well.

------------------------------------------------------------
          Leaving FHI-aims.
          Date     :  20220517, Time     :  111930.268

          Computational steps:
          | Number of self-consistency cycles          :           14
          | Number of SCF (re)initializations          :            1

          Detailed time accounting                     :  max(cpu_time)    wall_clock(cpu1)
          | Total time                                  :        1.860 s           1.922 s
          | Preparation time                            :        0.184 s           0.185 s
          | Boundary condition initalization            :        0.000 s           0.000 s
          | Grid partitioning                           :        0.033 s           0.033 s
          | Preloading free-atom quantities on grid     :        0.014 s           0.015 s
          | Free-atom superposition energy              :        0.005 s           0.005 s
          | Total time for integrations                 :        0.441 s           0.440 s
          | Total time for solution of K.-S. equations  :        0.069 s           0.072 s
          | Total time for density & force components   :        0.617 s           0.618 s
          | Total time for mixing                       :        0.061 s           0.034 s
          | Total time for Hartree multipole update     :        0.019 s           0.020 s
          | Total time for Hartree multipole sum        :        0.295 s           0.292 s
          | Total time for total energy evaluation      :        0.002 s           0.001 s
          | Total time NSC force correction             :        0.065 s           0.064 s
          | Total time for scaled ZORA corrections      :        0.000 s           0.000 s

          Partial memory accounting:
          | Residual value for overall tracked memory usage across tasks:     0.000000 MB (should be 0.000000 MB)
          | Peak values for overall tracked memory usage:
          |   Minimum:        2.963 MB (on task  2 after allocating hessian_basis_wave)
          |   Maximum:        3.085 MB (on task  8 after allocating hessian_basis_wave)
          |   Average:        3.019 MB
          | Largest tracked array allocation:
          |   Minimum:        1.437 MB (hessian_basis_wave on task  2)
          |   Maximum:        1.511 MB (hessian_basis_wave on task  8)
          |   Average:        1.474 MB
          Note:  These values currently only include a subset of arrays which are explicitly tracked.
          The "true" memory usage will be greater.

          Have a nice day.
------------------------------------------------------------
