********************************************************************************
*                       GENERAL UTILITY LATTICE PROGRAM                        *
*                                 Julian Gale                                  *
*                       Curtin Institute for Computation                       *
*                           Department of Chemistry                            *
*                    Curtin University, Western Australia                      *
********************************************************************************
* Version = 5.1.1 * Last modified =  24th November 2018                        *
********************************************************************************
*  optimise     - perform optimisation run                                     *
*  conp         - constant pressure calculation                                *
*  shell        - only shells and radii to be optimised                        *
*  phonon       - calculate phonons for final geometry                         *
*  eigenvectors - output phonon eigenvectors                                   *
********************************************************************************

  Job Started  at 14:38.57 25th May        2022                               

  Number of CPUs =     1

  Host name      = login03                                 


  Total number of configurations input =      1

********************************************************************************
*  Input for Configuration =   1                                               *
********************************************************************************

  Formula = Al3F9                                                       

  Number of irreducible atoms/shells =      21


  Total number atoms/shells =      21

  Dimensionality = 0               :  Cluster


  Charge on cluster =  -0.000000


  Initial cluster dipoles : x =     -0.025533 e.Angs
                            y =     -0.070711 e.Angs
                            z =      0.181507 e.Angs

  Temperature of configuration =  0.000     K 

  Symmetry number =      1

  Cartesian coordinates of cluster :

--------------------------------------------------------------------------------
   No.  Atomic       x           y          z         Charge      Occupancy
        Label      (Angs)      (Angs)     (Angs)        (e)         (Frac)  
--------------------------------------------------------------------------------
      1 Al    c      0.3718     -0.7292      1.5995     3.00000    1.000000    
      2 Al    c      2.1604     -1.7337     -0.4639     3.00000    1.000000    
      3 Al    c     -0.7280     -1.7708     -0.8847     3.00000    1.000000    
      4 F     c      3.3477     -0.6721     -1.0395     0.59000    1.000000    
      5 F     c     -1.7281     -0.7373     -1.7789     0.59000    1.000000    
      6 F     c      2.7077     -3.3468     -0.5015     0.59000    1.000000    
      7 F     c     -1.2011     -3.3970     -1.0709     0.59000    1.000000    
      8 F     c      1.8000     -1.3738      1.0874     0.59000    1.000000    
      9 F     c      0.8102     -1.5750     -1.3349     0.59000    1.000000    
     10 F     c      0.1381     -1.0846      3.2350     0.59000    1.000000    
     11 F     c      0.3980      0.9637      1.2709     0.59000    1.000000    
     12 F     c     -0.8343     -1.4077      0.7037     0.59000    1.000000    
     13 F     s      3.3477 *   -0.6721 *   -1.0395 *  -1.59000    1.000000    
     14 F     s     -1.7281 *   -0.7373 *   -1.7789 *  -1.59000    1.000000    
     15 F     s      2.7077 *   -3.3468 *   -0.5015 *  -1.59000    1.000000    
     16 F     s     -1.2011 *   -3.3970 *   -1.0709 *  -1.59000    1.000000    
     17 F     s      1.8000 *   -1.3738 *    1.0874 *  -1.59000    1.000000    
     18 F     s      0.8102 *   -1.5750 *   -1.3349 *  -1.59000    1.000000    
     19 F     s      0.1381 *   -1.0846 *    3.2350 *  -1.59000    1.000000    
     20 F     s      0.3980 *    0.9637 *    1.2709 *  -1.59000    1.000000    
     21 F     s     -0.8343 *   -1.4077 *    0.7037 *  -1.59000    1.000000    
--------------------------------------------------------------------------------


  Brillouin zone sampling points :

--------------------------------------------------------------------------------
  Point number          x          y          z            Weight
--------------------------------------------------------------------------------
        1           0.000000   0.000000   0.000000     1.00000000
--------------------------------------------------------------------------------


********************************************************************************
*  General input information                                                   *
********************************************************************************

  Species output for all configurations : 

--------------------------------------------------------------------------------
  Species    Type    Atomic    Atomic    Charge       Radii (Angs)     Library
                     Number     Mass       (e)     Cova   Ionic  VDW   Symbol
--------------------------------------------------------------------------------
    Al       Core       13      26.98   3.000000   1.350  0.000  2.050          
    F        Core        9      19.00   0.590000   0.710  0.000  1.300          
    F        Shell       9       0.00  -1.590000   0.710  0.000  1.300          
--------------------------------------------------------------------------------


  Accuracy factor for short range sums = 12.000

  Time limit = Infinity

  Maximum range for interatomic potentials =    100000.000000 Angstroms

  General interatomic potentials :

--------------------------------------------------------------------------------
Atom  Types   Potential      Parameter       Value         Units   Cutoffs(Ang)
  1     2                                                            Min /  Max 
--------------------------------------------------------------------------------
Al   c F    s Buckingham    Buckingham A     3760.0008    eV        0.000 10.000
                            Buckingham rho  0.22200000    Ang       
                            Buckingham C     0.0000000    eV*Ang^6  
--------------------------------------------------------------------------------
F    s F    s Buck 4 range  Buck4 A          1127.7000    eV        0.000 12.000
                            Buck4 rho       0.27530000    Ang       
                            Buck4 C          15.830000    eV*Ang^6  
                            Buck4 minimum    2.7900000    Ang       
--------------------------------------------------------------------------------
F    c F    s Spring (c-s)  Spring k 2       20.770000    eV*Ang^-2 0.000  0.800
                            Spring k 4       0.0000000    eV*Ang^-4 
--------------------------------------------------------------------------------

********************************************************************************
*  Output for configuration   1                                                *
********************************************************************************


  Components of energy : 

--------------------------------------------------------------------------------
  Interatomic potentials     =          24.66004028 eV    
  Monopole - monopole (real) =        -197.41572507 eV    
--------------------------------------------------------------------------------
  Total lattice energy       =        -172.75568478 eV    
--------------------------------------------------------------------------------
  Total lattice energy       =          -16668.2828 kJ/mol
--------------------------------------------------------------------------------


  Number of variables =       27

  Maximum number of calculations  =          2000
  Maximum Hessian update interval =            10
  Maximum step size               =   1.000000000
  Maximum parameter tolerance     =   0.000001000
  Maximum function  tolerance     =   0.000010000
  Maximum gradient  tolerance     =   0.000000010
  Maximum gradient  component     =   0.010000000

  Symmetry not applied to optimisation

  Newton-Raphson optimiser to be used

  BFGS hessian update to be used

  Lower half triangular hessian to be used

  Minimiser to switch to RFO
  When gradient norm is less than     0.010000

  Shell only optimisation

  Start of cluster optimisation :

  Cycle:      0 Energy:      -172.755685  Gnorm:      1.222085  CPU:    0.004
  ** Hessian calculated **
  Cycle:      1 Energy:      -182.267534  Gnorm:      0.193735  CPU:    0.006
  Cycle:      2 Energy:      -182.486801  Gnorm:      0.064545  CPU:    0.007
  Cycle:      3 Energy:      -182.508206  Gnorm:      0.017744  CPU:    0.009
  Cycle:      4 Energy:      -182.509917  Gnorm:      0.002662  CPU:    0.011
  ** Hessian has required structure
  Cycle:      5 Energy:      -182.509952  Gnorm:      0.000584  CPU:    0.012
  ** Hessian has required structure
  Cycle:      6 Energy:      -182.509954  Gnorm:      0.000224  CPU:    0.014
  ** Hessian has required structure
  Cycle:      7 Energy:      -182.509954  Gnorm:      0.000181  CPU:    0.015
  ** Hessian has required structure
  Cycle:      8 Energy:      -182.509955  Gnorm:      0.000065  CPU:    0.017
  ** Hessian has required structure
  Cycle:      9 Energy:      -182.509955  Gnorm:      0.000034  CPU:    0.018
  ** Hessian has required structure
  Cycle:     10 Energy:      -182.509955  Gnorm:      0.000011  CPU:    0.020
  ** Hessian has required structure
  Cycle:     11 Energy:      -182.509955  Gnorm:      0.000000  CPU:    0.022
  ** Hessian has required structure
  Cycle:     12 Energy:      -182.509955  Gnorm:      0.000000  CPU:    0.023
  ** Hessian has required structure
  Cycle:     13 Energy:      -182.509955  Gnorm:      0.000000  CPU:    0.025
  ** Hessian has required structure
  Cycle:     14 Energy:      -182.509955  Gnorm:      0.000000  CPU:    0.027
  ** Hessian has required structure
  Cycle:     15 Energy:      -182.509955  Gnorm:      0.000000  CPU:    0.028
  ** Hessian has required structure
  Cycle:     16 Energy:      -182.509955  Gnorm:      0.000000  CPU:    0.030
  ** Hessian calculated **

  XYZ File written as 002/4/sp_mod_70/sp_mod_70_eig.xyz



  **** Optimisation achieved ****


  Final energy =    -182.50995473 eV
  Final Gnorm  =       0.00000005

  Components of energy : 

--------------------------------------------------------------------------------
  Interatomic potentials     =          47.93904522 eV    
  Monopole - monopole (real) =        -230.44899995 eV    
--------------------------------------------------------------------------------
  Total lattice energy       =        -182.50995473 eV    
--------------------------------------------------------------------------------
  Total lattice energy       =          -17609.4207 kJ/mol
--------------------------------------------------------------------------------

  Final cartesian coordinates of atoms :

--------------------------------------------------------------------------------
   No.  Atomic        x           y          z          Radius
        Label       (Angs)      (Angs)     (Angs)       (Angs) 
--------------------------------------------------------------------------------
     1  Al    c     0.371827   -0.729183    1.599477    0.000000
     2  Al    c     2.160446   -1.733741   -0.463856    0.000000
     3  Al    c    -0.728031   -1.770837   -0.884655    0.000000
     4  F     c     3.347693   -0.672148   -1.039467    0.000000
     5  F     c    -1.728051   -0.737334   -1.778910    0.000000
     6  F     c     2.707689   -3.346763   -0.501490    0.000000
     7  F     c    -1.201055   -3.396962   -1.070923    0.000000
     8  F     c     1.800035   -1.373833    1.087442    0.000000
     9  F     c     0.810170   -1.574981   -1.334866    0.000000
    10  F     c     0.138121   -1.084558    3.235028    0.000000
    11  F     c     0.397952    0.963676    1.270910    0.000000
    12  F     c    -0.834292   -1.407665    0.703669    0.000000
    13  F     s     3.196001   -0.759311   -0.971323    0.000000
    14  F     s    -1.599959   -0.820904   -1.670007    0.000000
    15  F     s     2.607234   -3.181027   -0.485100    0.000000
    16  F     s    -1.113651   -3.228813   -1.027166    0.000000
    17  F     s     1.675490   -1.362953    0.986446    0.000000
    18  F     s     0.789559   -1.579582   -1.192985    0.000000
    19  F     s     0.164842   -1.075308    3.050791    0.000000
    20  F     s     0.402290    0.753621    1.259653    0.000000
    21  F     s    -0.686426   -1.393287    0.642358    0.000000
--------------------------------------------------------------------------------


  Final Cartesian derivatives :

--------------------------------------------------------------------------------
   No.  Atomic          x             y             z           Radius
        Label       (eV/Angs)     (eV/Angs)    (eV/Angs)      (eV/Angs)
--------------------------------------------------------------------------------
      1 Al    c       0.000000      0.000000      0.000000      0.000000
      2 Al    c       0.000000      0.000000      0.000000      0.000000
      3 Al    c       0.000000      0.000000      0.000000      0.000000
      4 F     c       0.000000      0.000000      0.000000      0.000000
      5 F     c       0.000000      0.000000      0.000000      0.000000
      6 F     c       0.000000      0.000000      0.000000      0.000000
      7 F     c       0.000000      0.000000      0.000000      0.000000
      8 F     c       0.000000      0.000000      0.000000      0.000000
      9 F     c       0.000000      0.000000      0.000000      0.000000
     10 F     c       0.000000      0.000000      0.000000      0.000000
     11 F     c       0.000000      0.000000      0.000000      0.000000
     12 F     c       0.000000      0.000000      0.000000      0.000000
     13 F     s      -0.000000     -0.000000      0.000000      0.000000
     14 F     s       0.000000     -0.000000      0.000000      0.000000
     15 F     s       0.000000      0.000000      0.000000      0.000000
     16 F     s      -0.000000      0.000000      0.000000      0.000000
     17 F     s       0.000000     -0.000000      0.000000      0.000000
     18 F     s       0.000000     -0.000000     -0.000000      0.000000
     19 F     s       0.000000      0.000000     -0.000000      0.000000
     20 F     s      -0.000000      0.000000      0.000000      0.000000
     21 F     s      -0.000000     -0.000000      0.000000      0.000000
--------------------------------------------------------------------------------
  Maximum abs         0.000000      0.000000      0.000000      0.000000
--------------------------------------------------------------------------------


  Born effective charge tensors : 

-------------------------------------------------------------------------------
  Atom             x           y             z
-------------------------------------------------------------------------------
    1 Al    x       0.8333     -0.0347     -0.0140
            y      -0.0355      0.5569      0.2680
            z      -0.0139      0.2625      0.9034
-------------------------------------------------------------------------------
    2 Al    x       1.0064     -0.1101     -0.0671
            y      -0.1119      0.4683      0.1311
            z      -0.0885      0.1308      0.8002
-------------------------------------------------------------------------------
    3 Al    x       0.9433      0.0806      0.1065
            y       0.0822      0.4733      0.1617
            z       0.1280      0.1614      0.8584
-------------------------------------------------------------------------------
    4 F     x      -0.2388      0.3069     -0.1354
            y       0.2906     -0.2585     -0.1399
            z      -0.1453     -0.1557     -0.4736
-------------------------------------------------------------------------------
    5 F     x      -0.3224     -0.2507      0.1831
            y      -0.2395     -0.2725     -0.2129
            z       0.1935     -0.2324     -0.3761
-------------------------------------------------------------------------------
    6 F     x      -0.5303     -0.1927     -0.0040
            y      -0.1545      0.0605      0.0031
            z       0.0046      0.0090     -0.5299
-------------------------------------------------------------------------------
    7 F     x      -0.5380      0.1671      0.0022
            y       0.1322      0.0688      0.0449
            z      -0.0068      0.0613     -0.5305
-------------------------------------------------------------------------------
    8 F     x      -0.0930     -0.1155     -0.1640
            y      -0.1189     -0.1978      0.0734
            z      -0.1664      0.0589     -0.0068
-------------------------------------------------------------------------------
    9 F     x       0.1931      0.0183      0.0646
            y       0.0167     -0.2535     -0.0741
            z       0.0648     -0.0853     -0.2344
-------------------------------------------------------------------------------
   10 F     x      -0.5366      0.0209     -0.0898
            y       0.0211     -0.4939     -0.1495
            z      -0.0898     -0.1485      0.0802
-------------------------------------------------------------------------------
   11 F     x      -0.5359      0.0152      0.0074
            y       0.0238      0.0407     -0.2140
            z       0.0067     -0.1552     -0.5667
-------------------------------------------------------------------------------
   12 F     x      -0.1811      0.0947      0.1105
            y       0.0938     -0.1923      0.1081
            z       0.1133      0.0932      0.0758
-------------------------------------------------------------------------------




  Moment of inertia tensor (10^-46 x kgm^2): 

-------------------------------------------------------------------------------
                x           y           z           Principal axis system
-------------------------------------------------------------------------------
       x        131.33        2.92       -1.70          131.118218
       y          2.92      178.75      -24.22          132.346718
       z         -1.70      -24.22      144.96          191.572539
-------------------------------------------------------------------------------
  Centre of mass (Ang) =     0.603340    -1.405921     0.069967
-------------------------------------------------------------------------------


  Vibrational Frequency Calculation : 

--------------------------------------------------------------------------------

  Frequencies (cm-1) and Eigenvectors : 

  Frequency    -227.0777 -220.1427 -197.6309 -165.3779 -145.5547 -141.1438
  IR Intensity    0.0010    0.0000    0.0023    0.0000    0.0001    0.0019
     in X         0.0000    0.0000    0.0000    0.0000    0.0001    0.0000
     in Y         0.0005    0.0000    0.0001    0.0000    0.0000    0.0006
     in Z         0.0005    0.0000    0.0021    0.0000    0.0000    0.0013
  Raman Intsty    0.0114    0.0000    0.0102    0.0000    0.0000    0.0015

     1 x      -0.009603 -0.025437  0.002040  0.377295 -0.126138 -0.024366
     1 y       0.041978 -0.000327 -0.017336  0.004845 -0.001621 -0.250144
     1 z       0.062217 -0.003706 -0.012471  0.054965 -0.018376  0.189302
     2 x       0.015839 -0.020698  0.001752 -0.139005  0.061699 -0.037926
     2 y       0.052926 -0.033685  0.093147 -0.047724  0.402762  0.159438
     2 z      -0.000975  0.035483  0.027881 -0.393761 -0.045135 -0.127875
     3 x      -0.016229 -0.010557 -0.011975 -0.246708  0.056367  0.068806
     3 y       0.052514  0.033284  0.092971  0.042770 -0.401245  0.160809
     3 z      -0.005646 -0.040036  0.025881  0.337569  0.062335 -0.112326
     4 x      -0.110205  0.024236 -0.054503 -0.103849 -0.034261  0.077591
     4 y       0.126373 -0.156354  0.196752  0.024092  0.353367  0.167128
     4 z      -0.079557 -0.150247  0.152771 -0.183957 -0.124469  0.198418
     5 x       0.125106 -0.023571  0.003693 -0.151371 -0.059446 -0.135144
     5 y       0.129395  0.156362  0.197500 -0.027369 -0.354570  0.164396
     5 z      -0.045276  0.150343  0.161249  0.146777  0.110816  0.167425
     6 x       0.218927 -0.107317  0.124001  0.012106  0.156004 -0.031895
     6 y       0.098176 -0.054591  0.110817 -0.000125  0.345910  0.125276
     6 z       0.151604  0.168323 -0.169791 -0.132174  0.012017 -0.204029
     7 x      -0.255474 -0.056178 -0.073160 -0.026109  0.161597  0.085611
     7 y       0.092083  0.052491  0.108285 -0.000055 -0.341830  0.126785
     7 z       0.082492 -0.192141 -0.198515  0.130134  0.034251 -0.186911
     8 x      -0.023555  0.223158 -0.132290  0.175179 -0.040833 -0.058018
     8 y       0.110913  0.555137 -0.467623 -0.071535  0.111750 -0.064760
     8 z      -0.047326 -0.045276  0.129989 -0.253433 -0.004370 -0.095525
     9 x       0.037421  0.008115  0.002336 -0.300829 -0.023053  0.037101
     9 y      -0.826115  0.000105 -0.098233 -0.003864 -0.000296  0.074055
     9 z      -0.184038  0.001183 -0.007376 -0.043826 -0.003357 -0.261196
    10 x      -0.002921  0.075825 -0.012676  0.284059  0.085076 -0.006451
    10 y      -0.056253  0.000973  0.301755  0.003648  0.001092 -0.476587
    10 z       0.025011  0.011046  0.060410  0.041382  0.012394  0.086293
    11 x      -0.010671 -0.291567  0.050921  0.027097 -0.197906 -0.061023
    11 y       0.038117 -0.003745 -0.085757  0.000348 -0.002543 -0.136899
    11 z       0.069885 -0.042475 -0.341978  0.003948 -0.028832  0.430945
    12 x       0.033279  0.214856  0.101429  0.093749 -0.037560  0.084466
    12 y       0.111642 -0.549510 -0.464623  0.074989 -0.112756 -0.062931
    12 z      -0.039046  0.109086  0.164038  0.292610 -0.007050 -0.074768


  Frequency    -131.9894 -106.4398  -98.3647  -94.7140  -72.9514    0.0000
  IR Intensity    0.0066    0.0021    0.0020    0.0063    0.0007    0.0000
     in X         0.0000    0.0021    0.0019    0.0001    0.0007    0.0000
     in Y         0.0056    0.0000    0.0000    0.0032    0.0000    0.0000
     in Z         0.0011    0.0000    0.0000    0.0031    0.0000    0.0000
  Raman Intsty    0.0042    0.0000    0.0000    0.0329    0.0000    0.0000

     1 x       0.009839  0.202517 -0.011418 -0.020217 -0.095097  0.321269
     1 y      -0.314765  0.002600 -0.000139 -0.358301 -0.001221 -0.059582
     1 z      -0.039788  0.029504 -0.001667  0.170360 -0.013853  0.018036
     2 x       0.149849 -0.079460 -0.052669 -0.004542  0.045215  0.321269
     2 y       0.054267  0.088473 -0.296058  0.235818 -0.021882 -0.059582
     2 z       0.063302  0.055461  0.086751 -0.029490 -0.028120  0.018036
     3 x      -0.162996 -0.058086 -0.033161  0.006833  0.034750  0.321269
     3 y       0.050251 -0.090238  0.294946  0.235977  0.022910 -0.059582
     3 z       0.017726 -0.075499 -0.099254 -0.027837  0.039770  0.018036
     4 x      -0.129864 -0.150858 -0.378286  0.232759 -0.026805  0.269603
     4 y       0.163602  0.035449  0.144189 -0.107469 -0.150280 -0.050000
     4 z      -0.232937 -0.203252  0.067902 -0.079466 -0.391818  0.015136
     5 x       0.186757 -0.201630 -0.339439 -0.197652 -0.141233  0.269603
     5 y       0.167669 -0.039976 -0.153402 -0.113001  0.148121 -0.050000
     5 z      -0.186811  0.151901 -0.172456 -0.142176  0.367337  0.015136
     6 x       0.204022 -0.047893  0.459773 -0.254873  0.122963  0.269603
     6 y       0.076519  0.075102 -0.060525  0.097995 -0.001366 -0.050000
     6 z      -0.134777  0.014008  0.019174  0.085436  0.464083  0.015136
     7 x      -0.158955 -0.040000  0.444458  0.217381  0.250166  0.269603
     7 y       0.071859 -0.076230  0.072133  0.104063  0.006159 -0.050000
     7 z      -0.187656 -0.026812  0.112551  0.154238 -0.409725  0.015136
     8 x       0.223737  0.297319  0.024101  0.136966 -0.204071  0.269603
     8 y       0.057663 -0.002040  0.086408  0.092977 -0.148927 -0.050000
     8 z       0.106260  0.196368  0.008868  0.028573 -0.075591  0.015136
     9 x      -0.078867 -0.035801  0.043588  0.017341  0.020634  0.269603
     9 y       0.070912 -0.000460  0.000563 -0.147081  0.000265 -0.050000
     9 z       0.535115 -0.005217  0.006351 -0.106060  0.003005  0.015136
    10 x       0.004447 -0.610589 -0.039589 -0.037639  0.054896  0.269603
    10 y      -0.176653 -0.007841 -0.000513  0.213142  0.000705 -0.050000
    10 z      -0.014958 -0.088951 -0.005772  0.239583  0.007998  0.015136
    11 x      -0.001208  0.371196 -0.126522  0.048800  0.162314  0.269603
    11 y      -0.232664  0.004766 -0.001617 -0.365265  0.002085 -0.050000
    11 z       0.028812  0.054076 -0.018426 -0.302797  0.023647  0.015136
    12 x      -0.246129  0.340833  0.027800 -0.141720 -0.220832  0.269603
    12 y       0.051630  0.010236 -0.085745  0.089395  0.143470 -0.050000
    12 z       0.037809 -0.103401 -0.001307 -0.012025  0.013690  0.015136


  Frequency       0.0000    0.0000   49.4809   84.7553  101.5594  112.8877
  IR Intensity    0.0000    0.0000    0.0049    0.0004    0.0425    0.0007
     in X         0.0000    0.0000    0.0000    0.0004    0.0001    0.0007
     in Y         0.0000    0.0000    0.0048    0.0000    0.0397    0.0000
     in Z         0.0000    0.0000    0.0001    0.0000    0.0027    0.0000
  Raman Intsty    0.0000    0.0000    0.0001    0.0000    0.0037    0.0000

     1 x       0.053492 -0.031842  0.012499  0.053237 -0.012035 -0.222353
     1 y       0.215725 -0.238750  0.013390  0.000684 -0.258210 -0.002855
     1 z      -0.240188 -0.221525 -0.086978  0.007756  0.105367 -0.032393
     2 x       0.053492 -0.031842  0.037907 -0.007400 -0.088175  0.098266
     2 y       0.215725 -0.238750 -0.117404 -0.000054 -0.194927 -0.032627
     2 z      -0.240188 -0.221525  0.050227 -0.235788 -0.088417 -0.009272
     3 x       0.053492 -0.031842 -0.047696 -0.074353  0.114607  0.090684
     3 y       0.215725 -0.238750 -0.118503 -0.000995 -0.192323  0.035054
     3 z      -0.240188 -0.221525  0.037758  0.223878 -0.058875  0.036799
     4 x       0.044890 -0.026721  0.094977  0.227931 -0.236661  0.067315
     4 y       0.181032 -0.200355  0.031975 -0.001031  0.134476 -0.126504
     4 z      -0.201561 -0.185900  0.408858  0.282939  0.133260 -0.229009
     5 x       0.044890 -0.026721 -0.208433  0.299073  0.185353 -0.004014
     5 y       0.181032 -0.200355  0.028078  0.007799  0.139895  0.127317
     5 z      -0.201561 -0.185900  0.364654 -0.206168  0.194742  0.238231
     6 x       0.044890 -0.026721 -0.024694  0.160002  0.250427  0.146391
     6 y       0.181032 -0.200355 -0.106328  0.047380 -0.057376  0.003969
     6 z      -0.201561 -0.185900 -0.350531  0.203263  0.156607 -0.408668
     7 x       0.044890 -0.026721  0.126329  0.212474 -0.283171  0.023783
     7 y       0.181032 -0.200355 -0.104389 -0.042595 -0.064229 -0.001784
     7 z      -0.201561 -0.185900 -0.328534 -0.148997  0.078872  0.433458
     8 x       0.044890 -0.026721  0.157122 -0.048323  0.056067 -0.210197
     8 y       0.181032 -0.200355  0.280075  0.087974  0.154802  0.221973
     8 z      -0.201561 -0.185900 -0.003096 -0.269766 -0.146129 -0.180470
     9 x       0.044890 -0.026721 -0.016577 -0.139724  0.037387  0.075496
     9 y       0.181032 -0.200355 -0.267125 -0.001793  0.309203  0.000969
     9 z      -0.201561 -0.185900  0.137335 -0.020355 -0.283890  0.010999
    10 x       0.044890 -0.026721  0.005488 -0.539734 -0.030217 -0.157170
    10 y       0.181032 -0.200355  0.124695 -0.006932  0.251681 -0.002019
    10 z      -0.201561 -0.185900 -0.048681 -0.078629  0.185233 -0.022897
    11 x       0.044890 -0.026721  0.019260 -0.016678  0.019587  0.345492
    11 y       0.181032 -0.200355  0.002133 -0.000214 -0.253174  0.004438
    11 z      -0.201561 -0.185900 -0.132392 -0.002429 -0.112119  0.050332
    12 x       0.044890 -0.026721 -0.156702 -0.121040 -0.015929 -0.247293
    12 y       0.181032 -0.200355  0.276045 -0.090151  0.153876 -0.227849
    12 z      -0.201561 -0.185900 -0.048812  0.245093 -0.156617  0.113822


  Frequency     128.2689  135.6776  139.2092  181.9567  182.0723  248.2018
  IR Intensity    0.0165    0.0125    0.0015    0.1378    0.1250    0.0037
     in X         0.0002    0.0122    0.0000    0.1349    0.0025    0.0001
     in Y         0.0060    0.0000    0.0010    0.0000    0.0106    0.0002
     in Z         0.0103    0.0003    0.0004    0.0029    0.1119    0.0035
  Raman Intsty    0.0004    0.0000    0.1015    0.0000    0.0049    0.1740

     1 x       0.018114  0.122707  0.008768 -0.122313  0.045497  0.039731
     1 y       0.040327  0.001575  0.052996 -0.001594 -0.151740 -0.049374
     1 z      -0.127897  0.017877 -0.064858 -0.017865 -0.298798 -0.268369
     2 x       0.055204  0.066330 -0.055008 -0.345529  0.154808 -0.112503
     2 y       0.061441 -0.005641  0.005770  0.079461  0.009087  0.024720
     2 z      -0.053915  0.011998  0.046752  0.043891 -0.200196  0.051070
     3 x      -0.039058  0.066833  0.039223 -0.316567 -0.091349  0.092602
     3 y       0.060231  0.007351  0.006980 -0.087963  0.005951  0.027355
     3 z      -0.067647  0.007401  0.060480 -0.140413 -0.236028  0.080950
     4 x       0.290320  0.140130 -0.276159  0.096183  0.074885 -0.014231
     4 y      -0.068004 -0.213043  0.259850 -0.338784  0.240507 -0.091179
     4 z       0.225702 -0.207910  0.045141  0.119339  0.124745  0.022336
     5 x      -0.340837  0.069595  0.245183  0.117645 -0.113417  0.009556
     5 y      -0.076109  0.215736  0.266547  0.341603  0.237986 -0.090874
     5 z       0.133755  0.238464  0.121092 -0.088153  0.097345  0.025801
     6 x       0.286356  0.152595 -0.334157  0.236990 -0.178939  0.073813
     6 y       0.125503  0.027706 -0.090543  0.255635 -0.109793  0.085033
     6 z       0.276388 -0.166955  0.108056 -0.014260  0.267311  0.007743
     7 x      -0.356361  0.099273  0.291615  0.229454  0.097882 -0.075069
     7 y       0.117249 -0.024472 -0.082507 -0.249677 -0.106161  0.083121
     7 z       0.182755  0.203646  0.199220  0.082301  0.307624 -0.013946
     8 x       0.033504  0.053555  0.076107  0.049424  0.092780  0.394659
     8 y      -0.004904 -0.213725  0.022347  0.016970 -0.135729 -0.074701
     8 z      -0.029559  0.074512  0.091200  0.186238 -0.133113  0.335662
     9 x      -0.015644  0.061279  0.016434 -0.255443 -0.031098  0.061287
     9 y       0.109570  0.000787 -0.013675 -0.003294 -0.091281  0.034281
     9 z       0.097728  0.008927 -0.111604 -0.037180  0.221785 -0.423712
    10 x       0.033983 -0.271947  0.028756  0.209855  0.022627  0.032112
    10 y      -0.375205 -0.003491 -0.432346  0.002738  0.282469  0.088954
    10 z      -0.200195 -0.039617 -0.159282  0.030544 -0.180439 -0.228267
    11 x       0.051397 -0.676577  0.060080  0.149731 -0.047016 -0.033752
    11 y      -0.015508 -0.008690 -0.028111  0.001920 -0.017572  0.047979
    11 z      -0.351437 -0.098564 -0.409936  0.021864  0.324122  0.227456
    12 x      -0.023545  0.067193 -0.099497  0.100893 -0.047540 -0.472004
    12 y      -0.005636  0.215277  0.020092 -0.015081 -0.137526 -0.085832
    12 z      -0.037871 -0.056922  0.065618 -0.164384 -0.153501  0.209406


  Frequency     528.7329  572.3519  580.7182  764.9587  771.1670  795.9094
  IR Intensity    0.0000    0.0057    0.0084    0.0074    0.0070    0.0000
     in X         0.0000    0.0001    0.0083    0.0001    0.0069    0.0000
     in Y         0.0000    0.0001    0.0000    0.0009    0.0000    0.0000
     in Z         0.0000    0.0055    0.0002    0.0064    0.0001    0.0000
  Raman Intsty    4.4302    0.0002    0.0000    0.0036    0.0000    0.0000

     1 x       0.020994  0.008081 -0.295169  0.010214  0.637642  0.081375
     1 y      -0.098224 -0.031477 -0.003791 -0.401224  0.008187  0.001107
     1 z      -0.135451 -0.052693 -0.043001 -0.034771  0.092894  0.011831
     2 x      -0.147345  0.123818 -0.022536  0.196492 -0.047008 -0.078610
     2 y       0.039409  0.018663 -0.021789 -0.018751  0.071847 -0.456143
     2 z       0.061955  0.221205 -0.157208  0.426283  0.300823 -0.045532
     3 x       0.122510 -0.182203 -0.066986 -0.309394  0.042577 -0.099809
     3 y       0.042875  0.014733  0.020639 -0.025247 -0.071903  0.453769
     3 z       0.101268  0.176624  0.144167  0.352589 -0.301462  0.019585
     4 x      -0.263502  0.173575  0.245066  0.017046  0.073683  0.221454
     4 y      -0.246488  0.153884  0.220760  0.014388  0.060919  0.202158
     4 z       0.126653 -0.087205 -0.116047 -0.008204 -0.036609 -0.107884
     5 x       0.222536 -0.145299  0.207249 -0.014354  0.061685  0.186458
     5 y      -0.240246  0.149790 -0.214950  0.013985 -0.059180 -0.196887
     5 z       0.197460 -0.133660  0.181941 -0.012779  0.056330  0.167287
     6 x      -0.096878  0.054774  0.120184 -0.031212  0.035653 -0.121582
     6 y       0.328064 -0.179132 -0.354229  0.077986 -0.092516  0.363476
     6 z       0.005921 -0.009669 -0.005839 -0.000216 -0.003101  0.009282
     7 x       0.082882 -0.045217  0.104577  0.028005  0.030948 -0.104680
     7 y       0.330373 -0.180417  0.357115  0.078745  0.093371 -0.366307
     7 z       0.032109 -0.024236  0.038583  0.008411  0.012804 -0.042240
     8 x      -0.149027 -0.305609  0.032610  0.051565 -0.299769 -0.089841
     8 y       0.041126  0.144517  0.028926 -0.063579  0.122146  0.048457
     8 z      -0.138028  0.159928  0.299909 -0.275981  0.017204  0.136983
     9 x      -0.024325  0.032641 -0.384879  0.027023 -0.367601  0.072061
     9 y      -0.046639  0.062149 -0.004943  0.049539 -0.004721  0.000927
     9 z       0.171083 -0.229528 -0.056070 -0.189842 -0.053554  0.010487
    10 x       0.059214  0.058041  0.002458  0.008301  0.002695 -0.001941
    10 y       0.094588  0.087841  0.000032  0.014128  0.000035 -0.000033
    10 z      -0.414800 -0.406152  0.000358 -0.058229  0.000391 -0.000248
    11 x      -0.007448 -0.006514  0.013623  0.005069 -0.012616 -0.000480
    11 y      -0.287149 -0.392489  0.000175  0.409195 -0.000160 -0.000063
    11 z       0.076439  0.079312  0.001985 -0.070870 -0.001838 -0.000059
    12 x       0.181126  0.243554  0.117525  0.030924 -0.279236 -0.045807
    12 y       0.045366  0.151570 -0.026997 -0.063843 -0.129584 -0.050219
    12 z      -0.089931  0.239932 -0.278037 -0.278987 -0.101560 -0.156788


  Frequency     796.1928  800.1953  814.9337  832.1610  838.3805  935.0666
  IR Intensity    0.0009    0.0194    0.0118    0.0039    0.0057    0.0000
     in X         0.0000    0.0003    0.0115    0.0001    0.0055    0.0000
     in Y         0.0000    0.0071    0.0000    0.0001    0.0000    0.0000
     in Z         0.0008    0.0121    0.0002    0.0037    0.0001    0.0000
  Raman Intsty    0.0016    0.0000    0.0000    0.0016    0.0000    1.8187

     1 x      -0.016202  0.041237  0.173977  0.073841 -0.228519 -0.071578
     1 y      -0.455043 -0.313477  0.002232  0.077230 -0.002934  0.144947
     1 z       0.151410 -0.255425  0.025347 -0.513660 -0.033292  0.478548
     2 x      -0.069528  0.083297  0.315447  0.296091  0.344297  0.496596
     2 y       0.275558 -0.314261  0.007027  0.243562 -0.131434 -0.069889
     2 z      -0.181203 -0.153983 -0.334467  0.025110  0.202816 -0.152803
     3 x       0.111348 -0.027978  0.207005 -0.296979  0.384427 -0.430451
     3 y       0.278009 -0.315697 -0.000319  0.235944  0.140795 -0.081795
     3 z      -0.154845 -0.170197  0.410577 -0.061287 -0.096654 -0.287857
     4 x      -0.125624  0.059831 -0.210178 -0.196748 -0.054598 -0.130066
     4 y      -0.115006  0.055348 -0.185247 -0.180661 -0.040582 -0.112713
     4 z       0.059892 -0.024808  0.101837  0.101835  0.017429  0.065466
     5 x       0.106224 -0.051642 -0.176985  0.164001 -0.048360  0.108778
     5 y      -0.112085  0.053919  0.180276 -0.176027  0.039259 -0.109646
     5 z       0.093708 -0.041049 -0.158240  0.154388 -0.032427  0.100261
     6 x       0.086079 -0.095909 -0.030963  0.029611 -0.058455 -0.047131
     6 y      -0.249950  0.288602  0.079825 -0.105882  0.164820  0.104413
     6 z      -0.000812  0.011220  0.003996  0.002689 -0.000937  0.002359
     7 x      -0.075986  0.081436 -0.026519 -0.026475 -0.052130  0.041859
     7 y      -0.252134  0.290885 -0.080563 -0.106602 -0.166242  0.105556
     7 z      -0.024429  0.037056 -0.012370 -0.005482 -0.015174  0.015323
     8 x      -0.138668 -0.238135 -0.196858 -0.093797  0.154289  0.077936
     8 y       0.075231  0.125331  0.130730  0.045069 -0.079883 -0.022645
     8 z       0.150965  0.271664  0.342192  0.022667 -0.126846  0.083378
     9 x      -0.010303  0.003270 -0.087452  0.017265 -0.648222  0.018517
     9 y      -0.010122 -0.009467 -0.001123  0.034955 -0.008325  0.040089
     9 z       0.071689 -0.021630 -0.012740 -0.121587 -0.094434 -0.130640
    10 x       0.033608 -0.024840 -0.011035 -0.059364  0.000727  0.032086
    10 y       0.055343 -0.033240 -0.000141 -0.091916  0.000009  0.051675
    10 z      -0.235572  0.173440 -0.001610  0.415591  0.000107 -0.224802
    11 x       0.006253  0.003415 -0.002189 -0.003695  0.001051  0.002383
    11 y       0.413190  0.222571 -0.000026 -0.129695  0.000013 -0.023798
    11 z      -0.079349 -0.043062 -0.000319  0.036794  0.000153 -0.014259
    12 x       0.087892  0.147514 -0.087711  0.082268  0.109634 -0.097886
    12 y       0.078128  0.130285 -0.134385  0.047329  0.083273 -0.024903
    12 z       0.183930  0.327850 -0.383647  0.048313  0.165294  0.057764




--------------------------------------------------------------------------------
  Vibrational properties (for cluster):  Temperature  =       0.000 K
--------------------------------------------------------------------------------
  Zero point energy            =        0.644402 eV
--------------------------------------------------------------------------------

  Phonon density of states : 

--------------------------------------------------------------------------------
 Frequency (cm-1) Density of States                                             
--------------------------------------------------------------------------------
    0.00000 |************************************************************  0.120
   14.61042 |                                                              0.000
   29.22083 |                                                              0.000
   43.83125 |********************                                          0.040
   58.44166 |                                                              0.000
   73.05208 |********************                                          0.040
   87.66250 |********************                                          0.040
  102.27291 |********************                                          0.040
  116.88333 |********************                                          0.040
  131.49374 |****************************************                      0.080
  146.10416 |                                                              0.000
  160.71458 |                                                              0.000
  175.32499 |****************************************                      0.080
  189.93541 |                                                              0.000
  204.54582 |                                                              0.000
  219.15624 |                                                              0.000
  233.76666 |********************                                          0.040
  248.37707 |                                                              0.000
  262.98749 |                                                              0.000
  277.59790 |                                                              0.000
  292.20832 |                                                              0.000
  306.81874 |                                                              0.000
  321.42915 |                                                              0.000
  336.03957 |                                                              0.000
  350.64998 |                                                              0.000
  365.26040 |                                                              0.000
  379.87082 |                                                              0.000
  394.48123 |                                                              0.000
  409.09165 |                                                              0.000
  423.70206 |                                                              0.000
  438.31248 |                                                              0.000
  452.92290 |                                                              0.000
  467.53331 |                                                              0.000
  482.14373 |                                                              0.000
  496.75414 |                                                              0.000
  511.36456 |                                                              0.000
  525.97498 |********************                                          0.040
  540.58539 |                                                              0.000
  555.19581 |                                                              0.000
  569.80623 |****************************************                      0.080
  584.41664 |                                                              0.000
  599.02706 |                                                              0.000
  613.63747 |                                                              0.000
  628.24789 |                                                              0.000
  642.85831 |                                                              0.000
  657.46872 |                                                              0.000
  672.07914 |                                                              0.000
  686.68955 |                                                              0.000
  701.29997 |                                                              0.000
  715.91039 |                                                              0.000
  730.52080 |                                                              0.000
  745.13122 |                                                              0.000
  759.74163 |****************************************                      0.080
  774.35205 |                                                              0.000
  788.96247 |************************************************************  0.120
  803.57288 |********************                                          0.040
  818.18330 |********************                                          0.040
  832.79371 |********************                                          0.040
  847.40413 |                                                              0.000
  862.01455 |                                                              0.000
  876.62496 |                                                              0.000
  891.23538 |                                                              0.000
  905.84579 |                                                              0.000
  920.45621 |********************                                          0.040
--------------------------------------------------------------------------------



  Time to end of optimisation =       0.0398 seconds


  Peak dynamic memory used =       0.65 MB 


  Timing analysis for GULP :

--------------------------------------------------------------------------------
  Task / Subroutine                                          Time (Seconds)
--------------------------------------------------------------------------------
  Calculation of real space energy and derivatives                0.0027
  Calculation of phonons                                          0.0015
  Calculation and manipulation of Hessian matrix                  0.0016
--------------------------------------------------------------------------------
  Total CPU time                                                  0.0398
--------------------------------------------------------------------------------


  Job Finished at 14:38.57 25th May        2022                               

