12
Properties=species:S:1:pos:R:3:forces:R:3 energy=-185.49260332 pbc="F F F"
Al    0.02758677200000001    -2.417912411    -1.318304661    -0.162684    -0.523561    -0.135995
Al    2.0792215300000003    -0.5467320560000001    -0.939377224    -0.354203    -0.465289    -0.217585
Al    -0.273045406    0.303229703    -1.948822283    -0.029176    -0.540205    -0.076328
F    3.593333488    -0.186854416    -0.063735423    -0.487251    -0.110983    -0.237744
F    -0.16115037399999999    -4.096434293    -2.2979770360000003    -0.225687    -0.877778    -0.206286
F    2.3708982379999997    -1.784099076    -2.4575649889999998    0.839024    0.727102    0.253644
F    1.329902495    0.380160739    -1.95183702    -0.216057    -0.322418    0.572667
F    -1.457803222    1.630504331    -2.180509111    0.255482    -0.296033    0.083435
F    -0.984291686    -1.2451190520000002    -1.1357563689999999    -0.436727    0.922665    0.252737
F    -0.139282374    -0.866534709    -3.486872381    -0.175717    0.988494    -0.312926
F    0.418122796    0.563115398    0.273828198    0.318094    -0.187703    -0.584949
F    1.1237787339999998    -1.95337841    -0.283715973    0.674902    0.685709    0.609331
