********************************************************************************
*                       GENERAL UTILITY LATTICE PROGRAM                        *
*                                 Julian Gale                                  *
*                       Curtin Institute for Computation                       *
*                           Department of Chemistry                            *
*                    Curtin University, Western Australia                      *
********************************************************************************
* Version = 5.1.1 * Last modified =  24th November 2018                        *
********************************************************************************
*  optimise     - perform optimisation run                                     *
*  conp         - constant pressure calculation                                *
*  shell        - only shells and radii to be optimised                        *
*  phonon       - calculate phonons for final geometry                         *
*  eigenvectors - output phonon eigenvectors                                   *
********************************************************************************

  Job Started  at 14:40.07 25th May        2022                               

  Number of CPUs =     1

  Host name      = login03                                 


  Total number of configurations input =      1

********************************************************************************
*  Input for Configuration =   1                                               *
********************************************************************************

  Formula = Al3F9                                                       

  Number of irreducible atoms/shells =      21


  Total number atoms/shells =      21

  Dimensionality = 0               :  Cluster


  Charge on cluster =  -0.000000


  Initial cluster dipoles : x =      0.057454 e.Angs
                            y =     -0.743515 e.Angs
                            z =     -0.085504 e.Angs

  Temperature of configuration =  0.000     K 

  Symmetry number =      1

  Cartesian coordinates of cluster :

--------------------------------------------------------------------------------
   No.  Atomic       x           y          z         Charge      Occupancy
        Label      (Angs)      (Angs)     (Angs)        (e)         (Frac)  
--------------------------------------------------------------------------------
      1 Al    c     -1.7078      2.5566     -1.2373     3.00000    1.000000    
      2 Al    c     -0.6066     -0.0202     -2.2684     3.00000    1.000000    
      3 Al    c     -2.1282     -0.3298     -0.5987     3.00000    1.000000    
      4 F     c     -0.7655      3.6745     -0.1713     0.59000    1.000000    
      5 F     c     -3.0261      3.1948     -2.3203     0.59000    1.000000    
      6 F     c     -1.3798     -2.0003     -1.7833     0.59000    1.000000    
      7 F     c     -2.5995      1.4953      0.1736     0.59000    1.000000    
      8 F     c     -3.1422     -1.2015      0.4906     0.59000    1.000000    
      9 F     c      0.5051     -0.4594     -3.5117     0.59000    1.000000    
     10 F     c     -0.2340      1.9766     -2.4220     0.59000    1.000000    
     11 F     c     -2.4667      0.4934     -2.3115     0.59000    1.000000    
     12 F     c     -0.2764      0.1896     -0.3717     0.59000    1.000000    
     13 F     s     -0.7655 *    3.6745 *   -0.1713 *  -1.59000    1.000000    
     14 F     s     -3.0261 *    3.1948 *   -2.3203 *  -1.59000    1.000000    
     15 F     s     -1.3798 *   -2.0003 *   -1.7833 *  -1.59000    1.000000    
     16 F     s     -2.5995 *    1.4953 *    0.1736 *  -1.59000    1.000000    
     17 F     s     -3.1422 *   -1.2015 *    0.4906 *  -1.59000    1.000000    
     18 F     s      0.5051 *   -0.4594 *   -3.5117 *  -1.59000    1.000000    
     19 F     s     -0.2340 *    1.9766 *   -2.4220 *  -1.59000    1.000000    
     20 F     s     -2.4667 *    0.4934 *   -2.3115 *  -1.59000    1.000000    
     21 F     s     -0.2764 *    0.1896 *   -0.3717 *  -1.59000    1.000000    
--------------------------------------------------------------------------------


  Brillouin zone sampling points :

--------------------------------------------------------------------------------
  Point number          x          y          z            Weight
--------------------------------------------------------------------------------
        1           0.000000   0.000000   0.000000     1.00000000
--------------------------------------------------------------------------------


********************************************************************************
*  General input information                                                   *
********************************************************************************

  Species output for all configurations : 

--------------------------------------------------------------------------------
  Species    Type    Atomic    Atomic    Charge       Radii (Angs)     Library
                     Number     Mass       (e)     Cova   Ionic  VDW   Symbol
--------------------------------------------------------------------------------
    Al       Core       13      26.98   3.000000   1.350  0.000  2.050          
    F        Core        9      19.00   0.590000   0.710  0.000  1.300          
    F        Shell       9       0.00  -1.590000   0.710  0.000  1.300          
--------------------------------------------------------------------------------


  Accuracy factor for short range sums = 12.000

  Time limit = Infinity

  Maximum range for interatomic potentials =    100000.000000 Angstroms

  General interatomic potentials :

--------------------------------------------------------------------------------
Atom  Types   Potential      Parameter       Value         Units   Cutoffs(Ang)
  1     2                                                            Min /  Max 
--------------------------------------------------------------------------------
Al   c F    s Buckingham    Buckingham A     3760.0008    eV        0.000 10.000
                            Buckingham rho  0.22200000    Ang       
                            Buckingham C     0.0000000    eV*Ang^6  
--------------------------------------------------------------------------------
F    s F    s Buck 4 range  Buck4 A          1127.7000    eV        0.000 12.000
                            Buck4 rho       0.27530000    Ang       
                            Buck4 C          15.830000    eV*Ang^6  
                            Buck4 minimum    2.7900000    Ang       
--------------------------------------------------------------------------------
F    c F    s Spring (c-s)  Spring k 2       20.770000    eV*Ang^-2 0.000  0.800
                            Spring k 4       0.0000000    eV*Ang^-4 
--------------------------------------------------------------------------------

********************************************************************************
*  Output for configuration   1                                                *
********************************************************************************


  Components of energy : 

--------------------------------------------------------------------------------
  Interatomic potentials     =           9.55741901 eV    
  Monopole - monopole (real) =        -170.48140642 eV    
--------------------------------------------------------------------------------
  Total lattice energy       =        -160.92398741 eV    
--------------------------------------------------------------------------------
  Total lattice energy       =          -15526.7048 kJ/mol
--------------------------------------------------------------------------------


  Number of variables =       27

  Maximum number of calculations  =          2000
  Maximum Hessian update interval =            10
  Maximum step size               =   1.000000000
  Maximum parameter tolerance     =   0.000001000
  Maximum function  tolerance     =   0.000010000
  Maximum gradient  tolerance     =   0.000000010
  Maximum gradient  component     =   0.010000000

  Symmetry not applied to optimisation

  Newton-Raphson optimiser to be used

  BFGS hessian update to be used

  Lower half triangular hessian to be used

  Minimiser to switch to RFO
  When gradient norm is less than     0.010000

  Shell only optimisation

  Start of cluster optimisation :

  Cycle:      0 Energy:      -160.923987  Gnorm:      1.682841  CPU:    0.005
  ** Hessian calculated **
  Cycle:      1 Energy:      -183.402373  Gnorm:      0.488351  CPU:    0.007
  ** Hessian calculated **
  Cycle:      2 Energy:      -184.608326  Gnorm:      0.028827  CPU:    0.009
  Cycle:      3 Energy:      -184.614706  Gnorm:      0.004453  CPU:    0.012
  ** Hessian has required structure
  Cycle:      4 Energy:      -184.614868  Gnorm:      0.001833  CPU:    0.014
  ** Hessian has required structure
  Cycle:      5 Energy:      -184.614892  Gnorm:      0.000737  CPU:    0.016
  ** Hessian has required structure
  Cycle:      6 Energy:      -184.614896  Gnorm:      0.000258  CPU:    0.017
  ** Hessian has required structure
  Cycle:      7 Energy:      -184.614897  Gnorm:      0.000174  CPU:    0.019
  ** Hessian has required structure
  Cycle:      8 Energy:      -184.614897  Gnorm:      0.000078  CPU:    0.021
  ** Hessian has required structure
  Cycle:      9 Energy:      -184.614897  Gnorm:      0.000043  CPU:    0.023
  ** Hessian has required structure
  Cycle:     10 Energy:      -184.614897  Gnorm:      0.000027  CPU:    0.024
  ** Hessian has required structure
  Cycle:     11 Energy:      -184.614897  Gnorm:      0.000019  CPU:    0.026
  ** Hessian has required structure
  Cycle:     12 Energy:      -184.614897  Gnorm:      0.000000  CPU:    0.028
  ** Hessian has required structure

  XYZ File written as 005/4/sp_mod_-50/sp_mod_-50_eig.xyz



  **** Optimisation achieved ****


  Final energy =    -184.61489710 eV
  Final Gnorm  =       0.00000000

  Components of energy : 

--------------------------------------------------------------------------------
  Interatomic potentials     =          41.36828210 eV    
  Monopole - monopole (real) =        -225.98317921 eV    
--------------------------------------------------------------------------------
  Total lattice energy       =        -184.61489710 eV    
--------------------------------------------------------------------------------
  Total lattice energy       =          -17812.5155 kJ/mol
--------------------------------------------------------------------------------

  Final cartesian coordinates of atoms :

--------------------------------------------------------------------------------
   No.  Atomic        x           y          z          Radius
        Label       (Angs)      (Angs)     (Angs)       (Angs) 
--------------------------------------------------------------------------------
     1  Al    c    -1.707828    2.556577   -1.237283    0.000000
     2  Al    c    -0.606598   -0.020240   -2.268364    0.000000
     3  Al    c    -2.128186   -0.329830   -0.598712    0.000000
     4  F     c    -0.765544    3.674496   -0.171275    0.000000
     5  F     c    -3.026122    3.194777   -2.320336    0.000000
     6  F     c    -1.379803   -2.000287   -1.783291    0.000000
     7  F     c    -2.599522    1.495326    0.173621    0.000000
     8  F     c    -3.142231   -1.201500    0.490600    0.000000
     9  F     c     0.505144   -0.459386   -3.511697    0.000000
    10  F     c    -0.234046    1.976617   -2.422037    0.000000
    11  F     c    -2.466747    0.493354   -2.311470    0.000000
    12  F     c    -0.276416    0.189638   -0.371691    0.000000
    13  F     s    -0.900490    3.510481   -0.324666    0.000000
    14  F     s    -2.829882    3.084207   -2.162001    0.000000
    15  F     s    -1.378680   -1.570537   -1.702582    0.000000
    16  F     s    -2.419848    1.407052   -0.115664    0.000000
    17  F     s    -3.010251   -1.091520    0.348157    0.000000
    18  F     s     0.360426   -0.405705   -3.350516    0.000000
    19  F     s    -0.481138    1.801512   -2.243027    0.000000
    20  F     s    -2.232335    0.388502   -2.117287    0.000000
    21  F     s    -0.509081    0.111557   -0.598202    0.000000
--------------------------------------------------------------------------------


  Final Cartesian derivatives :

--------------------------------------------------------------------------------
   No.  Atomic          x             y             z           Radius
        Label       (eV/Angs)     (eV/Angs)    (eV/Angs)      (eV/Angs)
--------------------------------------------------------------------------------
      1 Al    c       0.000000      0.000000      0.000000      0.000000
      2 Al    c       0.000000      0.000000      0.000000      0.000000
      3 Al    c       0.000000      0.000000      0.000000      0.000000
      4 F     c       0.000000      0.000000      0.000000      0.000000
      5 F     c       0.000000      0.000000      0.000000      0.000000
      6 F     c       0.000000      0.000000      0.000000      0.000000
      7 F     c       0.000000      0.000000      0.000000      0.000000
      8 F     c       0.000000      0.000000      0.000000      0.000000
      9 F     c       0.000000      0.000000      0.000000      0.000000
     10 F     c       0.000000      0.000000      0.000000      0.000000
     11 F     c       0.000000      0.000000      0.000000      0.000000
     12 F     c       0.000000      0.000000      0.000000      0.000000
     13 F     s      -0.000000     -0.000000      0.000000      0.000000
     14 F     s      -0.000000     -0.000000      0.000000      0.000000
     15 F     s      -0.000000     -0.000000      0.000000      0.000000
     16 F     s      -0.000000      0.000000     -0.000000      0.000000
     17 F     s      -0.000000      0.000000      0.000000      0.000000
     18 F     s      -0.000000     -0.000000      0.000000      0.000000
     19 F     s       0.000000     -0.000000      0.000000      0.000000
     20 F     s      -0.000000     -0.000000      0.000000      0.000000
     21 F     s      -0.000000     -0.000000      0.000000      0.000000
--------------------------------------------------------------------------------
  Maximum abs         0.000000      0.000000      0.000000      0.000000
--------------------------------------------------------------------------------


  Born effective charge tensors : 

-------------------------------------------------------------------------------
  Atom             x           y             z
-------------------------------------------------------------------------------
    1 Al    x       0.8458     -0.0550     -0.4890
            y      -0.0532      1.4605     -0.0319
            z      -0.4886     -0.0336      0.9196
-------------------------------------------------------------------------------
    2 Al    x       0.8434      0.2546      0.2716
            y       0.2788      1.6564     -0.2628
            z       0.2657     -0.2426      0.7002
-------------------------------------------------------------------------------
    3 Al    x       0.8697     -0.3938      0.1380
            y      -0.4129      1.3826      0.4750
            z       0.1449      0.4502      0.9477
-------------------------------------------------------------------------------
    4 F     x      -0.3706      0.1706      0.1779
            y       0.2036     -0.3866      0.2124
            z       0.1840      0.1823     -0.3296
-------------------------------------------------------------------------------
    5 F     x      -0.2320     -0.1046      0.2516
            y      -0.1406     -0.5476     -0.1315
            z       0.2449     -0.0987     -0.3244
-------------------------------------------------------------------------------
    6 F     x      -0.3570     -0.0177      0.1017
            y       0.0027     -0.5962     -0.0205
            z       0.1055     -0.0391     -0.3833
-------------------------------------------------------------------------------
    7 F     x      -0.3143      0.0400      0.0467
            y       0.0634     -0.5555     -0.0711
            z       0.0547     -0.0356     -0.3509
-------------------------------------------------------------------------------
    8 F     x      -0.3314      0.2121     -0.2574
            y       0.2191     -0.4059     -0.2297
            z      -0.2621     -0.2202     -0.2952
-------------------------------------------------------------------------------
    9 F     x      -0.2836     -0.1086     -0.3282
            y      -0.1184     -0.5418      0.1368
            z      -0.3240      0.1298     -0.2071
-------------------------------------------------------------------------------
   10 F     x      -0.3295      0.0017      0.0449
            y      -0.0298     -0.5816      0.0273
            z       0.0354     -0.0008     -0.3096
-------------------------------------------------------------------------------
   11 F     x      -0.1648     -0.0643      0.0148
            y      -0.0644     -0.4637     -0.1087
            z       0.0148     -0.1086     -0.2008
-------------------------------------------------------------------------------
   12 F     x      -0.1757      0.0651      0.0273
            y       0.0517     -0.4206      0.0048
            z       0.0248      0.0170     -0.1666
-------------------------------------------------------------------------------




  Moment of inertia tensor (10^-46 x kgm^2): 

-------------------------------------------------------------------------------
                x           y           z           Principal axis system
-------------------------------------------------------------------------------
       x        173.09        4.40       24.72          108.256948
       y          4.40      108.99       -3.02          146.861433
       z         24.72       -3.02      168.83          195.788204
-------------------------------------------------------------------------------
  Centre of mass (Ang) =    -1.485203     0.791574    -1.361672
-------------------------------------------------------------------------------


  Vibrational Frequency Calculation : 

--------------------------------------------------------------------------------

  Frequencies (cm-1) and Eigenvectors : 

  Frequency    -135.1983  -94.2965  -88.9729  -45.7071  -40.6573   -0.0000
  IR Intensity    0.0106    0.0000    0.0357    0.0000    0.0002    0.0000
     in X         0.0047    0.0000    0.0198    0.0000    0.0001    0.0000
     in Y         0.0002    0.0000    0.0004    0.0000    0.0000    0.0000
     in Z         0.0057    0.0000    0.0155    0.0000    0.0001    0.0000
  Raman Intsty    0.0000    0.0000    0.0005    0.0000    0.0000    0.0000

     1 x       0.175346  0.020106  0.094436  0.124521  0.066050 -0.022725
     1 y       0.035677  0.004091 -0.008993  0.025336  0.013439 -0.039148
     1 z      -0.192408 -0.022066  0.084393 -0.136639 -0.072477 -0.324099
     2 x      -0.165584  0.132968  0.086600  0.138477 -0.197305 -0.022725
     2 y      -0.570300 -0.028504 -0.014377 -0.124389 -0.021485 -0.039148
     2 z       0.021677  0.137159  0.078086  0.226056 -0.134780 -0.324099
     3 x      -0.106434 -0.153758  0.088382 -0.258616  0.149403 -0.022725
     3 y       0.514953  0.024276 -0.014011  0.099945  0.011739 -0.039148
     3 z       0.276811 -0.114353  0.076116 -0.094227  0.187343 -0.324099
     4 x       0.026235 -0.035180  0.045544  0.044967  0.272482 -0.019071
     4 y       0.005338 -0.007158  0.040178  0.009149  0.055440 -0.032852
     4 z      -0.028788  0.038602  0.048958 -0.049342 -0.298996 -0.271978
     5 x      -0.015718  0.065408  0.072513  0.263042 -0.024552 -0.019071
     5 y      -0.003198  0.013309 -0.036505  0.053520 -0.004996 -0.032852
     5 z       0.017247 -0.071775  0.059310 -0.288639  0.026942 -0.271978
     6 x       0.000755  0.006147  0.106158 -0.136271 -0.134023 -0.019071
     6 y       0.000154  0.001251 -0.017565 -0.027726 -0.027269 -0.032852
     6 z      -0.000829 -0.006749  0.093487  0.149531  0.147065 -0.271978
     7 x      -0.003031 -0.079690  0.131236 -0.129437  0.216413 -0.019071
     7 y       0.218844  0.013320 -0.007905  0.136560  0.106982 -0.032852
     7 z       0.057931 -0.068405  0.099924 -0.175377  0.083345 -0.271978
     8 x       0.073236 -0.484477 -0.495480  0.048462 -0.279572 -0.019071
     8 y      -0.194083  0.032758  0.056539  0.258526  0.368126 -0.032852
     8 z      -0.122283 -0.417413 -0.411730  0.309015  0.068530 -0.271978
     9 x       0.076335  0.466875 -0.466801 -0.260460  0.030296 -0.019071
     9 y       0.224517 -0.036345  0.062370 -0.301661 -0.418845 -0.032852
     9 z      -0.041842  0.436762 -0.443168 -0.076382  0.204998 -0.271978
    10 x      -0.016628  0.077977  0.113444  0.210302 -0.085728 -0.019071
    10 y      -0.222844 -0.013667 -0.011527 -0.120106 -0.080393 -0.032852
    10 z      -0.036358  0.070276  0.119455  0.086642 -0.226745 -0.271978
    11 x      -0.040325  0.116027  0.083299  0.145946 -0.157067 -0.019071
    11 y      -0.008205  0.023608  0.010421  0.029695 -0.031957 -0.032852
    11 z       0.044249 -0.127321  0.077839 -0.160148  0.172351 -0.271978
    12 x       0.014340 -0.132273  0.089037 -0.191772  0.140125 -0.019071
    12 y       0.002917 -0.026912 -0.051462 -0.039019  0.028511 -0.032852
    12 z      -0.015735  0.145141  0.071606  0.210433 -0.153760 -0.271978


  Frequency      -0.0000    0.0000   33.8923  103.6060  126.6126  144.3138
  IR Intensity    0.0000    0.0000    0.0066    0.0070    0.0081    0.0000
     in X         0.0000    0.0000    0.0036    0.0012    0.0003    0.0000
     in Y         0.0000    0.0000    0.0004    0.0040    0.0078    0.0000
     in Z         0.0000    0.0000    0.0026    0.0018    0.0000    0.0000
  Raman Intsty    0.0000    0.0000    0.0182    0.6367    1.4623    0.0000

     1 x       0.230113 -0.231561 -0.187247 -0.146470 -0.031320  0.000815
     1 y       0.228525  0.230939 -0.006411 -0.098545  0.067083  0.000166
     1 z      -0.043739 -0.011658 -0.171831 -0.151753 -0.016104 -0.000894
     2 x       0.230113 -0.231561  0.143669  0.130428  0.019080 -0.172282
     2 y       0.228525  0.230939 -0.013460  0.105913 -0.123253  0.002054
     2 z      -0.043739 -0.011658  0.135748  0.105794  0.022635 -0.159339
     3 x       0.230113 -0.231561  0.150819  0.098462  0.046544  0.174936
     3 y       0.228525  0.230939 -0.012006  0.099410 -0.117665 -0.001514
     3 z      -0.043739 -0.011658  0.127902  0.140870 -0.007502  0.156426
     4 x       0.193107 -0.194321 -0.434082  0.061723  0.093194 -0.403044
     4 y       0.191774  0.193799  0.396621 -0.356824 -0.113818 -0.082005
     4 z      -0.036705 -0.009783 -0.322046 -0.009913  0.063824  0.442264
     5 x       0.193107 -0.194321 -0.229545 -0.091260 -0.005956  0.426400
     5 y       0.191774  0.193799 -0.386210  0.080272  0.169809  0.086757
     5 z      -0.036705 -0.009783 -0.280801 -0.068283  0.026058 -0.467892
     6 x       0.193107 -0.194321  0.168216  0.275479  0.262417 -0.018449
     6 y       0.191774  0.193799 -0.026395  0.100720 -0.187770 -0.003754
     6 z      -0.036705 -0.009783  0.148405  0.269725  0.204329  0.020244
     7 x       0.193107 -0.194321  0.070816 -0.262495 -0.074142 -0.021606
     7 y       0.191774  0.193799  0.022270  0.023113 -0.022940 -0.004942
     7 z      -0.036705 -0.009783  0.013833 -0.054063 -0.201475 -0.015160
     8 x       0.193107 -0.194321  0.018365  0.050814 -0.153351 -0.058057
     8 y       0.191774  0.193799  0.052307 -0.225861  0.381296  0.049491
     8 z      -0.036705 -0.009783  0.055963 -0.156704  0.199108 -0.017795
     9 x       0.193107 -0.194321  0.047224 -0.106668  0.108733  0.032707
     9 y       0.191774  0.193799  0.058179 -0.257902  0.434620 -0.054648
     9 z      -0.036705 -0.009783  0.024296  0.016102 -0.088480  0.045611
    10 x       0.193107 -0.194321  0.017226 -0.085724 -0.200859  0.016283
    10 y       0.191774  0.193799  0.011366  0.059080 -0.048722  0.003859
    10 z      -0.036705 -0.009783  0.072637 -0.248036 -0.062427  0.021001
    11 x       0.193107 -0.194321  0.097012  0.067818 -0.059682 -0.139750
    11 y       0.191774  0.193799 -0.108215 -0.040008 -0.471653 -0.028434
    11 z      -0.036705 -0.009783  0.068344  0.054385 -0.141844  0.153349
    12 x       0.193107 -0.194321  0.116977 -0.007902 -0.011231  0.161383
    12 y       0.191774  0.193799  0.018063  0.490169  0.066325  0.032836
    12 z      -0.036705 -0.009783  0.109953  0.083687  0.002064 -0.177087


  Frequency     173.3755  174.8940  183.3870  250.2634  250.7644  277.0803
  IR Intensity    0.0017    0.0241    0.0045    0.0003    0.1194    0.0106
     in X         0.0003    0.0108    0.0002    0.0002    0.0016    0.0047
     in Y         0.0011    0.0004    0.0044    0.0000    0.1171    0.0002
     in Z         0.0004    0.0129    0.0000    0.0002    0.0007    0.0057
  Raman Intsty    1.5352    0.0000    0.2773    0.0000    0.9363    0.0000

     1 x       0.066474 -0.067764  0.258520  0.114213 -0.097456 -0.237640
     1 y       0.198732 -0.013787  0.024124  0.023243  0.409555 -0.048351
     1 z       0.097427  0.074360  0.240067 -0.125329 -0.012871  0.260764
     2 x      -0.037795 -0.117220 -0.132070  0.059508 -0.028793  0.131189
     2 y      -0.066441  0.154935  0.036104  0.057593  0.139042 -0.134035
     2 z      -0.008369  0.079406 -0.119712  0.176939  0.061682 -0.009250
     3 x      -0.000271 -0.036715 -0.137981 -0.168998  0.031943 -0.029592
     3 y      -0.058804 -0.186256  0.034902 -0.079867  0.151401  0.154707
     3 z      -0.049546  0.089507 -0.113226 -0.056793 -0.004959 -0.102233
     4 x      -0.152863  0.373380  0.119861 -0.130786  0.289272  0.025047
     4 y       0.489862  0.075973  0.182699 -0.026613 -0.144222  0.005096
     4 z      -0.048472 -0.409714  0.143108  0.143519  0.236875 -0.027484
     5 x       0.110425  0.347239  0.117337  0.073694 -0.218053  0.133902
     5 y       0.446000  0.070653 -0.590086  0.014992 -0.221851  0.027244
     5 z       0.183335 -0.381026 -0.002483 -0.080870 -0.239850 -0.146931
     6 x       0.142194  0.013417  0.098518 -0.107421  0.029650  0.315829
     6 y      -0.118417  0.002729 -0.004451 -0.021856  0.045407  0.064260
     6 z       0.107627 -0.014721  0.088956  0.117875  0.035438 -0.346562
     7 x       0.053486 -0.077447  0.007909  0.572526  0.100556  0.010089
     7 y       0.008854  0.016278  0.017544 -0.017750  0.186697  0.041627
     7 z      -0.102670  0.062610  0.068574  0.162414 -0.131304  0.453950
     8 x       0.101907 -0.014639  0.013256 -0.011869  0.108488  0.050427
     8 y      -0.293091 -0.311243 -0.016824 -0.146246 -0.091307  0.212359
     8 z      -0.145811 -0.019836 -0.013743  0.040494 -0.137746 -0.005969
     9 x      -0.078252 -0.035418 -0.008934 -0.064784 -0.106217  0.038805
     9 y      -0.329751  0.301054 -0.021339  0.130647 -0.134995 -0.194203
     9 z       0.051879  0.074763  0.010606  0.043618  0.097852 -0.091946
    10 x      -0.096100 -0.049775  0.064706 -0.224545 -0.151164 -0.437226
    10 y      -0.021581 -0.042164  0.029101  0.088556  0.135478 -0.128534
    10 z       0.061473  0.076992  0.006250 -0.544256  0.144930  0.014752
    11 x      -0.083854 -0.182708 -0.163674  0.047561 -0.097436  0.087441
    11 y      -0.299472 -0.037176 -0.151954  0.009674 -0.232917  0.017791
    11 z      -0.131949  0.200485 -0.177336 -0.052192 -0.131982 -0.095950
    12 x      -0.030794 -0.109864 -0.235235 -0.160003  0.157281 -0.062201
    12 y       0.030027 -0.022353  0.441949 -0.032559 -0.376435 -0.012656
    12 z      -0.022497  0.120554 -0.132428  0.175575  0.073531  0.068254


  Frequency     283.1159  310.4511  324.3658  346.1492  379.1423  413.8220
  IR Intensity    0.0076    0.0001    0.0295    0.0025    0.0022    0.0219
     in X         0.0042    0.0000    0.0160    0.0000    0.0001    0.0097
     in Y         0.0001    0.0000    0.0000    0.0024    0.0018    0.0004
     in Z         0.0033    0.0000    0.0135    0.0001    0.0003    0.0117
  Raman Intsty    0.0211    0.0000    0.1935    0.7903    2.5779    0.0000

     1 x      -0.176253  0.155595 -0.047808  0.070904 -0.035108 -0.022659
     1 y      -0.048938  0.031658 -0.026370 -0.298700  0.021479 -0.004610
     1 z      -0.169697 -0.170735 -0.048458  0.009230 -0.028012  0.024864
     2 x      -0.033092 -0.083857 -0.164992 -0.004159  0.086425  0.131876
     2 y       0.022654  0.070905  0.010599  0.238820 -0.017576  0.223951
     2 z      -0.007086  0.059899 -0.147042 -0.012917 -0.113877 -0.088388
     3 x      -0.014648 -0.036525 -0.163670 -0.056358 -0.098664  0.112554
     3 y       0.026407 -0.095399  0.010868  0.228200 -0.055235 -0.174218
     3 z      -0.027324  0.072197 -0.148494  0.044362  0.089222 -0.179827
     4 x      -0.039094 -0.076672 -0.025698 -0.151503  0.001342 -0.086310
     4 y      -0.261609 -0.015600 -0.080253 -0.040130 -0.034546 -0.017561
     4 z      -0.084136  0.084133 -0.038300 -0.145509 -0.005182  0.094709
     5 x      -0.135306 -0.085264 -0.044861  0.168207 -0.046821 -0.061675
     5 y       0.207150 -0.017348  0.053384 -0.004176  0.053979 -0.012549
     5 z      -0.084897  0.093561 -0.030984  0.152516 -0.032660  0.067676
     6 x      -0.089693  0.475961  0.533509  0.034426  0.012900 -0.143142
     6 y       0.053343  0.096842 -0.086694  0.416399 -0.311942 -0.029124
     6 z      -0.071849 -0.522276  0.470123  0.108582 -0.046085  0.157071
     7 x       0.478358  0.063941  0.113430 -0.159148 -0.155547 -0.054834
     7 y      -0.024847  0.128325 -0.018011 -0.035661  0.395971  0.569404
     7 z       0.228180 -0.194967  0.069734  0.210515  0.347405  0.091001
     8 x       0.026652 -0.096810  0.031364  0.030865 -0.104342  0.119735
     8 y       0.008690  0.036767  0.000643  0.051263 -0.110851  0.009540
     8 z      -0.004713  0.125665  0.025331 -0.026802  0.114808 -0.138865
     9 x      -0.003267 -0.105571  0.028070 -0.032111  0.120889  0.124358
     9 y       0.002603 -0.077944 -0.000028  0.038450 -0.065024  0.040125
     9 z       0.028118  0.096410  0.028946  0.042302 -0.132340 -0.128980
    10 x       0.279810  0.206816  0.083819  0.194810  0.250772  0.020244
    10 y      -0.065245 -0.073235 -0.024036  0.036357  0.478641 -0.576444
    10 z       0.446050 -0.102137  0.102226 -0.177886 -0.098453 -0.053045
    11 x      -0.140889 -0.241171 -0.131997 -0.221853  0.162421 -0.105925
    11 y      -0.226852 -0.049070  0.432006 -0.335908 -0.218802 -0.021552
    11 z      -0.170459  0.264639 -0.040188 -0.264464  0.107447  0.116232
    12 x      -0.109650 -0.183191 -0.139021  0.123930 -0.185193 -0.076721
    12 y       0.306621 -0.037273 -0.271168 -0.327169 -0.126256 -0.015610
    12 z      -0.043073  0.201017 -0.176973  0.052276 -0.192181  0.084188


  Frequency     442.6848  458.2012  460.3298  515.9883  524.6524  561.8275
  IR Intensity    0.0001    0.0050    0.0323    0.0002    0.0407    0.1737
     in X         0.0000    0.0022    0.0011    0.0001    0.0001    0.0000
     in Y         0.0001    0.0001    0.0312    0.0000    0.0398    0.1682
     in Z         0.0000    0.0027    0.0000    0.0001    0.0008    0.0055
  Raman Intsty    0.4886    0.0000    2.2130    0.0000    4.3033    0.2080

     1 x      -0.006037  0.018854 -0.071933 -0.035356  0.004523 -0.002218
     1 y       0.063181  0.003837  0.317458 -0.007194 -0.022646  0.011489
     1 z       0.006214 -0.020689 -0.006689  0.038796 -0.000076  0.000110
     2 x       0.119994 -0.105945  0.004040 -0.354466 -0.020689  0.152608
     2 y      -0.000264  0.114500  0.013013  0.051049  0.219301  0.467658
     2 z      -0.146159  0.122662 -0.002632 -0.334626  0.032916 -0.068832
     3 x      -0.129682 -0.087551 -0.004490  0.375049 -0.009828 -0.135339
     3 y      -0.051065 -0.153870  0.011279 -0.046864  0.221509  0.409071
     3 z       0.127812  0.089663  0.006728  0.312041  0.021009  0.247134
     4 x       0.047624 -0.012047  0.171166 -0.001030 -0.056084 -0.037176
     4 y       0.045792 -0.002451  0.200251 -0.000209 -0.052101 -0.026495
     4 z       0.051891  0.013219  0.193117  0.001131 -0.060771 -0.038792
     5 x      -0.037023 -0.010050 -0.268701 -0.000790  0.069593  0.068846
     5 y      -0.000820 -0.002045  0.125513 -0.000161 -0.026362 -0.036541
     5 z      -0.033892  0.011028 -0.221600  0.000866  0.058534  0.055965
     6 x       0.003386  0.120174  0.000933 -0.003435  0.006901 -0.002171
     6 y       0.589720  0.024451  0.006578 -0.000698 -0.125709 -0.444420
     6 z       0.112433 -0.131868  0.002070  0.003769 -0.017021 -0.084383
     7 x       0.111580 -0.037693 -0.188515  0.011286  0.038020  0.067136
     7 y      -0.052934  0.239657 -0.425172  0.027654 -0.122814 -0.162746
     7 z      -0.158728  0.069899  0.326109 -0.032782 -0.062983 -0.116036
     8 x      -0.208162 -0.224560 -0.015699  0.002109  0.227389 -0.177279
     8 y      -0.183465 -0.207084  0.016601 -0.003134  0.195752 -0.153101
     8 z       0.223677  0.238846  0.020114 -0.000892 -0.244416  0.188189
     9 x       0.229101 -0.246413  0.014934  0.000077 -0.249495  0.192291
     9 y      -0.094497  0.111257  0.022834  0.003576  0.098723 -0.077907
     9 z      -0.256136  0.277957 -0.013499 -0.001507  0.278873 -0.217343
    10 x      -0.133341 -0.020763  0.375164  0.035817 -0.035142 -0.076574
    10 y      -0.102767 -0.251551 -0.310481 -0.018068 -0.137700 -0.191986
    10 z       0.110026 -0.005755 -0.292420 -0.018905  0.017299  0.041658
    11 x       0.235638  0.325603  0.017047  0.324418  0.375985 -0.093836
    11 y      -0.135752  0.066249 -0.038690  0.066010 -0.215577  0.039517
    11 z       0.189571 -0.357288  0.008361 -0.355992  0.302666 -0.078187
    12 x      -0.230064  0.313860 -0.020076 -0.350848 -0.346191  0.040829
    12 y      -0.079399  0.063859 -0.004676 -0.071385 -0.112512 -0.004754
    12 z      -0.224384 -0.344401 -0.019163  0.384994 -0.336348  0.036327


  Frequency     576.2994  631.7925  683.7017  798.3623  832.4667 1015.8267
  IR Intensity    0.1044    0.0564    0.0187    0.0054    0.0048    0.0037
     in X         0.0465    0.0307    0.0002    0.0024    0.0021    0.0000
     in Y         0.0019    0.0035    0.0183    0.0006    0.0001    0.0036
     in Z         0.0560    0.0221    0.0002    0.0024    0.0026    0.0001
  Raman Intsty    0.0000    0.0000    0.5455    0.0639    0.0000    1.8315

     1 x      -0.495771  0.006122 -0.138242 -0.532959 -0.020022 -0.007783
     1 y      -0.100872  0.049864  0.659687 -0.101066 -0.004074  0.090699
     1 z       0.544014  0.014825 -0.003664 -0.504436  0.021970  0.009724
     2 x      -0.007209 -0.341926  0.002417 -0.018199  0.351548  0.429186
     2 y      -0.142684  0.067646 -0.091105 -0.005978 -0.139605 -0.072044
     2 z       0.047598 -0.321954  0.063101 -0.025699 -0.387624 -0.474980
     3 x      -0.071589 -0.364300  0.078446 -0.026023  0.315112 -0.404245
     3 y       0.126650  0.063094 -0.075636 -0.007569  0.275247 -0.241617
     3 z       0.038867 -0.297403 -0.020326 -0.017114 -0.343907  0.439550
     4 x       0.021969 -0.052207 -0.246421  0.252318 -0.003320 -0.008642
     4 y       0.004469 -0.066429 -0.328094  0.280599 -0.000676 -0.010130
     4 z      -0.024108 -0.059895 -0.285404  0.281972  0.003643 -0.009754
     5 x       0.022449  0.015577  0.346626  0.344425 -0.001645  0.005469
     5 y       0.004567 -0.002020 -0.187853 -0.153777 -0.000335 -0.004229
     5 z      -0.024631  0.013821  0.281056  0.285368  0.001805  0.004200
     6 x       0.013565  0.058635 -0.008280  0.010484 -0.041336 -0.001154
     6 y       0.002760 -0.015624  0.049322 -0.004848 -0.008410  0.012072
     6 z      -0.014885  0.050538  0.001600  0.008656  0.045358  0.001187
     7 x       0.231061  0.029968 -0.044116  0.017020 -0.009194  0.014286
     7 y       0.138376 -0.016168 -0.068427  0.000226 -0.008440 -0.004844
     7 z      -0.353351  0.033692  0.076003  0.028437  0.010612 -0.014841
     8 x       0.002684 -0.008774 -0.029784  0.005552 -0.255735  0.150569
     8 y      -0.017559 -0.015311 -0.028804  0.006706 -0.216948  0.131625
     8 z      -0.003320  0.024713  0.029509 -0.003475  0.275067 -0.161575
     9 x      -0.000231  0.025968  0.030805 -0.004004 -0.280194 -0.165308
     9 y       0.018059 -0.008242 -0.016477  0.004761  0.107906  0.067356
     9 z       0.000628 -0.013410 -0.036975  0.007012  0.313012  0.185039
    10 x       0.345162  0.039135  0.081858  0.029613 -0.010896 -0.012066
    10 y      -0.021134 -0.014303 -0.042796  0.002788  0.004352 -0.010205
    10 z      -0.278944  0.023633 -0.062230  0.014619  0.011433  0.014075
    11 x       0.002517  0.343620 -0.027282  0.016120 -0.084957 -0.084088
    11 y       0.000512 -0.184193  0.032419 -0.005717 -0.017286  0.053561
    11 z      -0.002762  0.278995 -0.018852  0.013631  0.093224 -0.066700
    12 x       0.045503  0.382348 -0.035031  0.016262 -0.083282  0.080488
    12 y       0.009258  0.107075  0.003297  0.005840 -0.016945  0.030484
    12 z      -0.049931  0.368295 -0.031313  0.015903  0.091385  0.079003




--------------------------------------------------------------------------------
  Vibrational properties (for cluster):  Temperature  =       0.000 K
--------------------------------------------------------------------------------
  Zero point energy            =        0.699112 eV
--------------------------------------------------------------------------------

  Phonon density of states : 

--------------------------------------------------------------------------------
 Frequency (cm-1) Density of States                                             
--------------------------------------------------------------------------------
    0.00000 |******************************                                0.034
   15.87229 |                                                              0.000
   31.74459 |******************************                                0.034
   47.61688 |                                                              0.000
   63.48917 |                                                              0.000
   79.36147 |                                                              0.000
   95.23376 |******************************                                0.034
  111.10605 |******************************                                0.034
  126.97835 |                                                              0.000
  142.85064 |******************************                                0.034
  158.72293 |******************************                                0.034
  174.59523 |************************************************************  0.069
  190.46752 |                                                              0.000
  206.33981 |                                                              0.000
  222.21211 |                                                              0.000
  238.08440 |************************************************************  0.069
  253.95669 |                                                              0.000
  269.82899 |************************************************************  0.069
  285.70128 |                                                              0.000
  301.57357 |******************************                                0.034
  317.44586 |******************************                                0.034
  333.31816 |******************************                                0.034
  349.19045 |                                                              0.000
  365.06274 |******************************                                0.034
  380.93504 |                                                              0.000
  396.80733 |                                                              0.000
  412.67962 |******************************                                0.034
  428.55192 |******************************                                0.034
  444.42421 |******************************                                0.034
  460.29650 |******************************                                0.034
  476.16880 |                                                              0.000
  492.04109 |                                                              0.000
  507.91338 |******************************                                0.034
  523.78568 |******************************                                0.034
  539.65797 |                                                              0.000
  555.53026 |******************************                                0.034
  571.40256 |******************************                                0.034
  587.27485 |                                                              0.000
  603.14714 |                                                              0.000
  619.01944 |******************************                                0.034
  634.89173 |                                                              0.000
  650.76402 |                                                              0.000
  666.63632 |                                                              0.000
  682.50861 |******************************                                0.034
  698.38090 |                                                              0.000
  714.25320 |                                                              0.000
  730.12549 |                                                              0.000
  745.99778 |                                                              0.000
  761.87008 |                                                              0.000
  777.74237 |                                                              0.000
  793.61466 |******************************                                0.034
  809.48696 |                                                              0.000
  825.35925 |******************************                                0.034
  841.23154 |                                                              0.000
  857.10384 |                                                              0.000
  872.97613 |                                                              0.000
  888.84842 |                                                              0.000
  904.72072 |                                                              0.000
  920.59301 |                                                              0.000
  936.46530 |                                                              0.000
  952.33759 |                                                              0.000
  968.20989 |                                                              0.000
  984.08218 |                                                              0.000
  999.95447 |******************************                                0.034
--------------------------------------------------------------------------------



  Time to end of optimisation =       0.0386 seconds


  Peak dynamic memory used =       0.65 MB 


  Timing analysis for GULP :

--------------------------------------------------------------------------------
  Task / Subroutine                                          Time (Seconds)
--------------------------------------------------------------------------------
  Calculation of real space energy and derivatives                0.0022
  Calculation of phonons                                          0.0017
  Calculation and manipulation of Hessian matrix                  0.0012
--------------------------------------------------------------------------------
  Total CPU time                                                  0.0386
--------------------------------------------------------------------------------


  Job Finished at 14:40.07 25th May        2022                               

