------------------------------------------------------------
          Invoking FHI-aims ...

          When using FHI-aims, please cite the following reference:

            Volker Blum, Ralf Gehrke, Felix Hanke, Paula Havu,
            Ville Havu, Xinguo Ren, Karsten Reuter, and Matthias Scheffler,
            'Ab Initio Molecular Simulations with Numeric Atom-Centered Orbitals',
            Computer Physics Communications 180, 2175-2196 (2009)

          In addition, many other developments in FHI-aims are likely important for
          your particular application. A partial list of references is given at the end of
          this file. Thank you for giving credit to the authors of these developments.

          For any questions about FHI-aims, please visit our slack channel at

            https://fhi-aims.slack.com

          and our main development and support site at

            https://aims-git.rz-berlin.mpg.de .

          The latter site, in particular, has a wiki to collect information, as well
          as an issue tracker to log discussions, suggest improvements, and report issues
          or bugs. https://aims-git.rz-berlin.mpg.de is also the main development site
          of the project and all new and updated code versions can be obtained there.
          Please send an email to aims-coordinators@fhi-berlin.mpg.de and we will add
          you to these sites. They are for you and everyone is welcome there.

------------------------------------------------------------



  Date     :  20220517, Time     :  114801.116
  Time zero on CPU 1             :   0.113079000000000E+00  s.
  Internal wall clock time zero  :           422020081.116  s.

  FHI-aims created a unique identifier for this run for later identification
  aims_uuid : 70507161-4F22-406F-AD58-55018A0DAFC5

  Build configuration of the current instance of FHI-aims
  -------------------------------------------------------
  FHI-aims version      : 210914
  Commit number         : GITDIR-NOTFOUND
  CMake host system     : Linux-3.10.0-693.17.1.el7.x86_64
  CMake version         : 3.21.1
  Fortran compiler      : /shared/ucl/apps/intel/2018.Update3/impi/2018.3.222/intel64/bin/mpiifort (Intel) version 18.0.3.20180410
  Fortran compiler flags: -O3 -ip -fp-model precise
  C compiler            : /shared/ucl/apps/intel/2018.Update3/compilers_and_libraries_2018.3.222/linux/bin/intel64/icc (Intel) version 18.0.3.20180410
  C compiler flags      : -O3 -ip -fp-model precise -std=gnu99
  ELPA2 kernel          : AVX2
  Using MPI
  Using ScaLAPACK
  Using LibXC
  Using i-PI
  Using RLSY
  Linking against: /shared/ucl/apps/intel/2019.Update5/compilers_and_libraries_2019.5.281/linux/mkl/lib/intel64/libmkl_intel_lp64.so
                   /shared/ucl/apps/intel/2019.Update5/compilers_and_libraries_2019.5.281/linux/mkl/lib/intel64/libmkl_sequential.so
                   /shared/ucl/apps/intel/2019.Update5/compilers_and_libraries_2019.5.281/linux/mkl/lib/intel64/libmkl_core.so
                   /shared/ucl/apps/intel/2019.Update5/compilers_and_libraries_2019.5.281/linux/mkl/lib/intel64/libmkl_blacs_intelmpi_lp64.so
                   /shared/ucl/apps/intel/2019.Update5/compilers_and_libraries_2019.5.281/linux/mkl/lib/intel64/libmkl_scalapack_lp64.so

  Using       24 parallel tasks.
  Task        0 on host node-k98a-015 reporting.
  Task        1 on host node-k98a-015 reporting.
  Task        2 on host node-k98a-015 reporting.
  Task        3 on host node-k98a-015 reporting.
  Task        4 on host node-k98a-015 reporting.
  Task        5 on host node-k98a-015 reporting.
  Task        6 on host node-k98a-015 reporting.
  Task        7 on host node-k98a-015 reporting.
  Task        8 on host node-k98a-015 reporting.
  Task        9 on host node-k98a-015 reporting.
  Task       10 on host node-k98a-015 reporting.
  Task       11 on host node-k98a-015 reporting.
  Task       12 on host node-k98a-015 reporting.
  Task       13 on host node-k98a-015 reporting.
  Task       14 on host node-k98a-015 reporting.
  Task       15 on host node-k98a-015 reporting.
  Task       16 on host node-k98a-015 reporting.
  Task       17 on host node-k98a-015 reporting.
  Task       18 on host node-k98a-015 reporting.
  Task       19 on host node-k98a-015 reporting.
  Task       20 on host node-k98a-015 reporting.
  Task       21 on host node-k98a-015 reporting.
  Task       22 on host node-k98a-015 reporting.
  Task       23 on host node-k98a-015 reporting.

  Performing system and environment tests:
  | Environment variable OMP_NUM_THREADS correctly set to 1.
  | Checking for ScaLAPACK...
  | Testing pdtran()...
  | All pdtran() tests passed.

  Obtaining array dimensions for all initial allocations:
  
  -----------------------------------------------------------------------
  Parsing control.in (first pass over file, find array dimensions only).
  The contents of control.in will be repeated verbatim below
  unless switched off by setting 'verbatim_writeout .false.' .
  in the first line of control.in .
  -----------------------------------------------------------------------
  
  #########################################################################################  Physical model
  #########################################################################################
  xc                 pbesol
  spin               none
  relativistic       atomic_zora scalar
  charge             0.0
  #  SCF convergence
  occupation_type    gaussian 0.01
  mixer              pulay
  n_max_pulay        10
  charge_mix_param   0.5
  sc_accuracy_rho    1E-5
  sc_accuracy_eev    1E-3
  sc_accuracy_etot   1E-6
  sc_accuracy_forces 1E-4
  sc_iter_limit      1500
  #  Relaxation
  #relax_geometry   bfgs 1.e-3
  
  ################################################################################
  #
  #  FHI-aims code project
  #  VB, Fritz-Haber Institut, 2009
  #
  #  Suggested "light" defaults for Al atom (to be pasted into control.in file)
  #  Be sure to double-check any results obtained with these settings for post-processing,
  #  e.g., with the "tight" defaults and larger basis sets.
  #
  ################################################################################
    species        Al
  #     global species definitions
      nucleus             13
      mass                26.9815386
  #
      l_hartree           4
  #
      cut_pot             3.5          1.5  1.0
      basis_dep_cutoff    1e-4
  #
      radial_base         41 5.0
      radial_multiplier   1
      angular_grids       specified
        division   0.6594  110
        division   0.8170  194
        division   0.9059  302
  #      division   1.0363  434
  #      division   1.1443  590
  #      division   1.2621  770
  #      division   2.8177  974
  #      outer_grid   974
        outer_grid   302
  ################################################################################
  #
  #  Definition of "minimal" basis
  #
  ################################################################################
  #     valence basis states
      valence      3  s   2.
      valence      3  p   1.
  #     ion occupancy
      ion_occ      3  s   1.
      ion_occ      2  p   6.
  ################################################################################
  #
  #  Suggested additional basis functions. For production calculations,
  #  uncomment them one after another (the most important basis functions are
  #  listed first).
  #
  #  Constructed for dimers: 2.0 A, 2.5 A, 3.0 A, 3.75 A, 4.5 A
  #
  ################################################################################
  #  "First tier" - improvements: -199.47 meV to -10.63 meV
       ionic 3 d auto
       ionic 3 p auto
  #     hydro 4 f 4.7
       ionic 3 s auto
  #  "Second tier" - improvements: -5.35 meV to -1.57 meV
  #     hydro 5 g 7
  #     hydro 3 d 6
  #     hydro 2 s 11.6
  #     hydro 2 p 0.9
  #  "Third tier" - improvements: -0.63 meV to -0.20 meV
  #     hydro 5 f 7.6
  #     hydro 4 p 7.2
  #     hydro 4 s 3.7
  #     hydro 4 d 7.6
  #  "Fourth tier" - improvements: -0.17 meV to -0.08 meV
  #     hydro 4 d 13.6
  #     hydro 5 g 11.2
  #     hydro 4 d 0.9
  #     hydro 1 s 0.4
  #     hydro 4 p 0.1
  #     hydro 5 f 9.8
  #  Further basis functions that fell out of the optimization - noise level...
  #     hydro 4 p 5
  
  ################################################################################
  #
  #  FHI-aims code project
  #  VB, Fritz-Haber Institut, 2009
  #
  #  Suggested "light" defaults for F atom (to be pasted into control.in file)
  #  Be sure to double-check any results obtained with these settings for post-processing,
  #  e.g., with the "tight" defaults and larger basis sets.
  #
  ################################################################################
    species        F
  #     global species definitions
      nucleus             9
      mass                18.9984032
  #
      l_hartree           4
  #
      cut_pot             3.5  1.5  1.0
      basis_dep_cutoff    1e-4
  #
      radial_base         37 5.0
      radial_multiplier   1
      angular_grids specified
        division   0.4014  110
        division   0.5291  194
        division   0.6019  302
  #      division   0.6814  434
  #      division   0.7989  590
  #      division   0.8965  770
  #      division   1.3427  974
  #      outer_grid   974
        outer_grid   302
  ################################################################################
  #
  #  Definition of "minimal" basis
  #
  ################################################################################
  #     valence basis states
      valence      2  s   2.
      valence      2  p   5.
  #     ion occupancy
      ion_occ      2  s   1.
      ion_occ      2  p   4.
  ################################################################################
  #
  #  Suggested additional basis functions. For production calculations,
  #  uncomment them one after another (the most important basis functions are
  #  listed first).
  #
  #  Constructed for dimers: 1.2 A, 1.418 A, 1.75 A, 2.25 A, 3.25 A
  #
  ################################################################################
  #  "First tier" - improvements: -149.44 meV to -45.88 meV
       hydro 2 p 1.7
       hydro 3 d 7.4
       hydro 3 s 6.8
  #  "Second tier" - improvements: -12.96 meV to -1.56 meV
  #     hydro 4 f 11.2
  #     ionic 2 p auto
  #     hydro 1 s 0.75
  #     hydro 4 d 8.8
  #     hydro 5 g 16.8
  #  "Third tier" - improvements: -0.58 meV to -0.05 meV
  #     hydro 3 p 6.2
  #     hydro 3 s 3.2
  #     hydro 4 f 9.6
  #     hydro 3 s 19.6
  #     hydro 4 d 8.6
  #     hydro 5 g 14.4
  # Further basis functions: -0.05 meV and below
  #     hydro 3 p 4.2
  
  -----------------------------------------------------------------------
  Completed first pass over input file control.in .
  -----------------------------------------------------------------------
  
  
  -----------------------------------------------------------------------
  Parsing geometry.in (first pass over file, find array dimensions only).
  The contents of geometry.in will be repeated verbatim below
  unless switched off by setting 'verbatim_writeout .false.' .
  in the first line of geometry.in .
  -----------------------------------------------------------------------
  
  atom -0.373181638 1.075660760 -1.820281136 Al
  atom -0.450492581 1.086418091 1.281433801 Al
  atom -3.012316503 0.423362078 -1.858142009 Al
  atom -3.498163855 0.159536136 -3.596767361 F
  atom -1.346931358 -0.552589304 -1.759888138 F
  atom -1.976094293 2.059394189 -1.974860761 F
  atom -2.071033377 0.885880655 0.452480109 F
  atom 0.576412416 1.362501297 -0.296536375 F
  atom -0.184482181 2.677329204 2.132907771 F
  atom 0.286572408 -0.464534871 1.911065358 F
  atom -4.283294567 0.241616526 -0.581379713 F
  atom 0.745260619 1.254538503 -3.234060844 F
  
  -----------------------------------------------------------------------
  Completed first pass over input file geometry.in .
  -----------------------------------------------------------------------
  

  Basic array size parameters:
  | Number of species                 :        2
  | Number of atoms                   :       12
  | Max. basis fn. angular momentum   :        2
  | Max. atomic/ionic basis occupied n:        3
  | Max. number of basis fn. types    :        3
  | Max. radial fns per species/type  :        5
  | Max. logarithmic grid size        :     1340
  | Max. radial integration grid size :       41
  | Max. angular integration grid size:      302
  | Max. angular grid division number :        8
  | Radial grid for Hartree potential :     1340
  | Number of spin channels           :        1

------------------------------------------------------------
          Reading file control.in.
------------------------------------------------------------
  XC: Using PBEsol gradient-corrected functionals.
  Spin treatment: No spin polarisation.
  Scalar relativistic treatment of kinetic energy: on-site free-atom approximation to ZORA.
  Charge =   0.000000E+00: Neutral system requested explicitly.
  Occupation type: Gaussian broadening, width =   0.100000E-01 eV.
  Using pulay charge density mixing.
  Pulay mixing - number of memorized iterations:   10
  Charge density mixing - mixing parameter:     0.5000
  Convergence accuracy of self-consistent charge density:  0.1000E-04
  Convergence accuracy of sum of eigenvalues:  0.1000E-02
  Convergence accuracy of total energy:  0.1000E-05
  Convergence accuracy of forces:  0.1000E-03
  Maximum number of s.-c. iterations  :  1500
 
  Reading configuration options for species Al                  .
  | Found nuclear charge :  13.0000
  | Found atomic mass :    26.9815386000000      amu
  | Found l_max for Hartree potential  :   4
  | Found cutoff potl. onset [A], width [A], scale factor :    3.50000    1.50000    1.00000
  | Threshold for basis-dependent cutoff potential is   0.100000E-03
  | Found data for basic radial integration grid :    41 points, outermost radius =    5.000 A
  | Found multiplier for basic radial grid :   1
  | Found angular grid specification: user-specified.
  | Specified grid contains     4 separate shells.
  | Check grid settings after all constraints further below.
  | Found free-atom valence shell :  3 s   2.000
  | Found free-atom valence shell :  3 p   1.000
  | Found free-ion valence shell :  3 s   1.000
  | Found free-ion valence shell :  2 p   6.000
  | Found ionic basis function :  3 d , default cutoff radius.
  | Found ionic basis function :  3 p , default cutoff radius.
  | Found ionic basis function :  3 s , default cutoff radius.
  Species Al                  : Missing cutoff potential type.
  Defaulting to exp(1/x)/(1-x)^2 type cutoff potential.
  Species Al: No 'logarithmic' tag. Using default grid for free atom:
  | Default logarithmic grid data [bohr] : 0.1000E-03 0.1000E+03 0.1012E+01
  | Will include ionic basis functions of  2.0-fold positive Al                   ion.
  Species Al: On-site basis accuracy parameter (for Gram-Schmidt orthonormalisation) not specified.
  Using default value basis_acc =  0.1000000E-03.
  Species Al                  : Using default innermost maximum threshold i_radial=  2 for radial functions.
  Species Al                  : Default cutoff onset for free atom density etc. : 0.35000000E+01 AA.
  Species Al                  : Basic radial grid will be enhanced according to radial_multiplier =   1, to contain    41 grid points.
 
  Reading configuration options for species F                   .
  | Found nuclear charge :   9.0000
  | Found atomic mass :    18.9984032000000      amu
  | Found l_max for Hartree potential  :   4
  | Found cutoff potl. onset [A], width [A], scale factor :    3.50000    1.50000    1.00000
  | Threshold for basis-dependent cutoff potential is   0.100000E-03
  | Found data for basic radial integration grid :    37 points, outermost radius =    5.000 A
  | Found multiplier for basic radial grid :   1
  | Found angular grid specification: user-specified.
  | Specified grid contains     4 separate shells.
  | Check grid settings after all constraints further below.
  | Found free-atom valence shell :  2 s   2.000
  | Found free-atom valence shell :  2 p   5.000
  | Found free-ion valence shell :  2 s   1.000
  | Found free-ion valence shell :  2 p   4.000
  | Found hydrogenic basis function :  2 p   1.700
  | Found hydrogenic basis function :  3 d   7.400
  | Found hydrogenic basis function :  3 s   6.800
  Species F                   : Missing cutoff potential type.
  Defaulting to exp(1/x)/(1-x)^2 type cutoff potential.
  Species F : No 'logarithmic' tag. Using default grid for free atom:
  | Default logarithmic grid data [bohr] : 0.1000E-03 0.1000E+03 0.1012E+01
  Species F : On-site basis accuracy parameter (for Gram-Schmidt orthonormalisation) not specified.
  Using default value basis_acc =  0.1000000E-03.
  Species F                   : Using default innermost maximum threshold i_radial=  2 for radial functions.
  Species F                   : Default cutoff onset for free atom density etc. : 0.35000000E+01 AA.
  Species F                   : Basic radial grid will be enhanced according to radial_multiplier =   1, to contain    37 grid points.
 
  Finished reading input file 'control.in'.
 
------------------------------------------------------------


------------------------------------------------------------
          Reading geometry description geometry.in.
------------------------------------------------------------
  | The smallest distance between any two atoms is         1.81067353 AA.
  | The first atom of this pair is atom number                      3 .
  | The second atom of this pair is atom number                    11 .
  Input structure read successfully.
  The structure contains       12 atoms,  and a total of        120.000 electrons.

  Input geometry:
  | No unit cell requested.
  | Atomic structure:
  |       Atom                x [A]            y [A]            z [A]
  |    1: Species Al           -0.37318164        1.07566076       -1.82028114
  |    2: Species Al           -0.45049258        1.08641809        1.28143380
  |    3: Species Al           -3.01231650        0.42336208       -1.85814201
  |    4: Species F            -3.49816386        0.15953614       -3.59676736
  |    5: Species F            -1.34693136       -0.55258930       -1.75988814
  |    6: Species F            -1.97609429        2.05939419       -1.97486076
  |    7: Species F            -2.07103338        0.88588066        0.45248011
  |    8: Species F             0.57641242        1.36250130       -0.29653638
  |    9: Species F            -0.18448218        2.67732920        2.13290777
  |   10: Species F             0.28657241       -0.46453487        1.91106536
  |   11: Species F            -4.28329457        0.24161653       -0.58137971
  |   12: Species F             0.74526062        1.25453850       -3.23406084

 
  Finished reading input file 'control.in'.
 

------------------------------------------------------------
          Reading geometry description geometry.in.
------------------------------------------------------------
 
  Consistency checks for stacksize environment parameter are next.
 
  | Maximum stacksize for task 0: unlimited
  | Maximum stacksize for task 1: unlimited
  | Maximum stacksize for task 2: unlimited
  | Maximum stacksize for task 3: unlimited
  | Maximum stacksize for task 4: unlimited
  | Maximum stacksize for task 5: unlimited
  | Maximum stacksize for task 6: unlimited
  | Maximum stacksize for task 7: unlimited
  | Maximum stacksize for task 8: unlimited
  | Maximum stacksize for task 9: unlimited
  | Maximum stacksize for task 10: unlimited
  | Maximum stacksize for task 11: unlimited
  | Maximum stacksize for task 12: unlimited
  | Maximum stacksize for task 13: unlimited
  | Maximum stacksize for task 14: unlimited
  | Maximum stacksize for task 15: unlimited
  | Maximum stacksize for task 16: unlimited
  | Maximum stacksize for task 17: unlimited
  | Maximum stacksize for task 18: unlimited
  | Maximum stacksize for task 19: unlimited
  | Maximum stacksize for task 20: unlimited
  | Maximum stacksize for task 21: unlimited
  | Maximum stacksize for task 22: unlimited
  | Maximum stacksize for task 23: unlimited
  | Current stacksize for task 0: unlimited
  | Current stacksize for task 1: unlimited
  | Current stacksize for task 2: unlimited
  | Current stacksize for task 3: unlimited
  | Current stacksize for task 4: unlimited
  | Current stacksize for task 5: unlimited
  | Current stacksize for task 6: unlimited
  | Current stacksize for task 7: unlimited
  | Current stacksize for task 8: unlimited
  | Current stacksize for task 9: unlimited
  | Current stacksize for task 10: unlimited
  | Current stacksize for task 11: unlimited
  | Current stacksize for task 12: unlimited
  | Current stacksize for task 13: unlimited
  | Current stacksize for task 14: unlimited
  | Current stacksize for task 15: unlimited
  | Current stacksize for task 16: unlimited
  | Current stacksize for task 17: unlimited
  | Current stacksize for task 18: unlimited
  | Current stacksize for task 19: unlimited
  | Current stacksize for task 20: unlimited
  | Current stacksize for task 21: unlimited
  | Current stacksize for task 22: unlimited
  | Current stacksize for task 23: unlimited
 
  Consistency checks for the contents of control.in are next.
 
  MPI_IN_PLACE appears to work with this MPI implementation.
  | Keeping use_mpi_in_place .true. (see manual).
  Target number of points in a grid batch is not set. Defaulting to  100
  Method for grid partitioning is not set. Defaulting to parallel hash+maxmin partitioning.
  Batch size limit is not set. Defaulting to    200
  By default, will store active basis functions for each batch.
  If in need of memory, prune_basis_once .false. can be used to disable this option.
  communication_type for Hartree potential was not specified.
  Defaulting to calc_hartree .
  Pulay mixer: Number of initial linear mixing iterations not set.
  Defaulting to    0 iterations.
  Work space size for distributed Hartree potential not set.
  Defaulting to   0.200000E+03 MB.
  Algorithm-dependent basis array size parameters:
  | n_max_pulay                         :       10
  Presetting      1001 iterations before the initial mixing cycle
  is restarted anyway using the sc_init_iter criterion / keyword.
  Presetting a factor      1.000 between actual scf density residual
  and density convergence criterion sc_accuracy_rho below which sc_init_iter
  takes no effect.
  Geometry relaxation not requested: no relaxation will be performed.
  Forces evaluation will include force correction term due to incomplete self-consistency (default).
  Handling of forces: Unphysical translation and rotation will be removed from forces.
  No accuracy limit for integral partition fn. given. Defaulting to  0.1000E-14.
  No threshold value for u(r) in integrations given. Defaulting to  0.1000E-05.
  No accuracy for occupation numbers given. Defaulting to  0.1000E-12.
  No threshold value for occupation numbers given. Defaulting to  0.0000E+00.
  No accuracy for fermi level given. Defaulting to  0.1000E-19.
  Maximum # of iterations to find E_F not set. Defaulting to  200.
  Preferred method for the eigenvalue solver ('KS_method') not specified in 'control.in'.
  Calling BLACS routine to test compilation state
  Since ScaLAPACK support is enabled, defaulting to ELPA (via ELSI).
  Will not use alltoall communication since running on < 1024 CPUs.
  Threshold for basis singularities not set.
  Default threshold for basis singularities:  0.1000E-04
  partition_type (choice of integration weights) for integrals was not specified.
  | Using a version of the partition function of Stratmann and coworkers ('stratmann_sparse').
  | At each grid point, the set of atoms used to build the partition table is smoothly restricted to
  | only those atoms whose free-atom density would be non-zero at that grid point.
  Partitioning for Hartree potential was not defined. Using partition_type for integrals.
  | Adjusted default value of keyword multip_moments_threshold to:       0.10000000E-11
  | This value may affect high angular momentum components of the Hartree potential in periodic systems.
  No q(lm)/r^(l+1) cutoff set for long-range Hartree potential.
  | Using default value of  0.100000E-09 .
  | Verify using the multipole_threshold keyword.
  Defaulting to new monopole extrapolation.
  Density update method: automatic selection selected.
  Charge integration errors on the 3D integration grid will be compensated
  by explicit normalization and distribution of residual charges.
  Use the "compensate_multipole_errors" flag to change this behaviour.
  Set 'collect_eigenvectors' to be '.true.' for use_density_matrix .false.
 
  Consistency checks for the contents of geometry.in are next.
 
  Number of empty states per atom not set in control.in - providing a guess from actual geometry.
  | Total number of empty states used during s.c.f. cycle:       36
  If you use a very high smearing, use empty_states (per atom!) in control.in to increase this value.

  Structure-dependent array size parameters: 
  | Maximum number of distinct radial functions  :       14
  | Maximum number of basis functions            :      180
  | Number of Kohn-Sham states (occupied + empty):       96
------------------------------------------------------------

------------------------------------------------------------
          Preparing all fixed parts of the calculation.
------------------------------------------------------------
  Determining machine precision:
    2.225073858507201E-308
  Setting up grids for atomic and cluster calculations.

  Creating wave function, potential, and density for free atoms.

  Species: Al

  List of occupied orbitals and eigenvalues:
    n    l              occ      energy [Ha]    energy [eV]
    1    0           2.0000       -55.621123     -1513.5278
    2    0           2.0000        -3.957030      -107.6763
    3    0           2.0000        -0.272233        -7.4078
    2    1           6.0000        -2.540949       -69.1427
    3    1           1.0000        -0.083300        -2.2667


  Species: F

  List of occupied orbitals and eigenvalues:
    n    l              occ      energy [Ha]    energy [eV]
    1    0           2.0000       -24.399611      -663.9472
    2    0           2.0000        -1.098702       -29.8972
    2    1           5.0000        -0.408210       -11.1080


  Adding cutoff potential to free-atom effective potential.
  Creating fixed part of basis set: Ionic, confined, hydrogenic.
 
  Al                   ion:

  List of free ionic orbitals and eigenvalues:
    n    l      energy [Ha]    energy [eV]
    1    0       -56.418846     -1535.2349
    2    0        -4.732717      -128.7838
    3    0        -0.872690       -23.7471
    2    1        -3.317230       -90.2664


  List of ionic basis orbitals and eigenvalues:
    n    l      energy [Ha]    energy [eV]    outer radius [A]
    3    2        -0.346815        -9.4373       4.594041
    3    1        -0.631870       -17.1940       4.538221
    3    0        -0.872657       -23.7462       4.538221

 
  F                    hydrogenic:
 
  List of hydrogenic basis orbitals: 
    n    l      effective z      eigenvalue [eV]  inner max. [A]     outer max. [A]     outer radius [A]   
    2    1         1.700000        -9.7616           1.243167           1.243167           4.598524
    3    2         7.400000       -82.7828           0.642437           0.642437           3.305741
    3    0         6.800000       -69.9026           0.057798           1.022307           3.781556
 
  Creating atomic-like basis functions for current effective potential.

  Species Al                  :

  List of atomic basis orbitals and eigenvalues:
    n    l      energy [Ha]    energy [eV]    outer radius [A]
    1    0       -55.621123     -1513.5278       0.850197
    2    0        -3.957030      -107.6763       3.144911
    3    0        -0.272233        -7.4078       4.594041
    2    1        -2.540949       -69.1427       3.731966
    3    1        -0.083300        -2.2667       4.594041


  Species F                   :

  List of atomic basis orbitals and eigenvalues:
    n    l      energy [Ha]    energy [eV]    outer radius [A]
    1    0       -24.399611      -663.9472       1.258458
    2    0        -1.098702       -29.8972       4.325857
    2    1        -0.408210       -11.1080       4.487453

  Assembling full basis from fixed parts.
  | Species Al :   atomic orbital   1 s accepted.
  | Species Al :   atomic orbital   2 s accepted.
  | Species Al :    ionic orbital   3 s accepted.
  | Species Al :   atomic orbital   3 s accepted.
  | Species Al :   atomic orbital   2 p accepted.
  | Species Al :    ionic orbital   3 p accepted.
  | Species Al :   atomic orbital   3 p accepted.
  | Species Al :    ionic orbital   3 d accepted.
  | Species F :   atomic orbital   1 s accepted.
  | Species F :    hydro orbital   3 s accepted.
  | Species F :   atomic orbital   2 s accepted.
  | Species F :   atomic orbital   2 p accepted.
  | Species F :    hydro orbital   2 p accepted.
  | Species F :    hydro orbital   3 d accepted.
 
  Basis size parameters after reduction:
  | Total number of radial functions:       14
  | Total number of basis functions :      180
 
  Per-task memory consumption for arrays in subroutine allocate_ext:
  |           4.807768MB.
  Testing on-site integration grid accuracy.
  |  Species  Function  <phi|h_atom|phi> (log., in eV)  <phi|h_atom|phi> (rad., in eV)
           1        1              -1513.5277717935              -1513.5271881332
           1        2               -107.6762691836               -107.6762662489
           1        3                 -6.9467474784                 -6.9471269649
           1        4                  5.5771951849                  5.4862107220 ***
           1        5                -69.1427313144                -69.1427312731
           1        6                 -1.5197375330                 -1.5230432022
           1        7                  6.8210948310                  6.5529872240 ***
           1        8                  4.3216540965                  4.2851170187 ***
           2        9               -663.9471986398               -663.9470363334
           2       10                 16.8514011578                 16.8512525338
           2       11                -28.4490593856                -28.4490661472
           2       12                -11.1080115307                -11.1080620173
           2       13                  7.1940182175                  7.1685154137
           2       14                 44.8544281765                 44.8543763625
 * Note: Onsite integrals marked "***" above are less accurate than
 * onsite_accuracy_threshold =    0.03000 eV. Usually, this is harmless.
 * When in doubt, tighten the "radial" and/or "radial_multiplier" flags to check.

  Preparing densities etc. for the partition functions (integrals / Hartree potential).

  Preparations completed.
  max(cpu_time)          :      0.191 s.
  Wall clock time (cpu1) :      0.208 s.
------------------------------------------------------------

------------------------------------------------------------
          Begin self-consistency loop: Initialization.

          Date     :  20220517, Time     :  114801.546
------------------------------------------------------------

  Initializing index lists of integration centers etc. from given atomic structure:
  | Number of centers in hartree potential         :        12
  | Number of centers in hartree multipole         :        12
  | Number of centers in electron density summation:        12
  | Number of centers in basis integrals           :        12
  | Number of centers in integrals                 :        12
  | Number of centers in hamiltonian               :        12
  * Using 24 tasks for Scalapack Eigenvalue solver.
  Detailed listing of tasks and assigned k-points:
  (for non-periodic systems, the "k-point" denotes an internal label only)
   Task     0 k-point     1 on node-k98a-015
   Task     1 k-point     1 on node-k98a-015
   Task     2 k-point     1 on node-k98a-015
   Task     3 k-point     1 on node-k98a-015
   Task     4 k-point     1 on node-k98a-015
   Task     5 k-point     1 on node-k98a-015
   Task     6 k-point     1 on node-k98a-015
   Task     7 k-point     1 on node-k98a-015
   Task     8 k-point     1 on node-k98a-015
   Task     9 k-point     1 on node-k98a-015
   Task    10 k-point     1 on node-k98a-015
   Task    11 k-point     1 on node-k98a-015
   Task    12 k-point     1 on node-k98a-015
   Task    13 k-point     1 on node-k98a-015
   Task    14 k-point     1 on node-k98a-015
   Task    15 k-point     1 on node-k98a-015
   Task    16 k-point     1 on node-k98a-015
   Task    17 k-point     1 on node-k98a-015
   Task    18 k-point     1 on node-k98a-015
   Task    19 k-point     1 on node-k98a-015
   Task    20 k-point     1 on node-k98a-015
   Task    21 k-point     1 on node-k98a-015
   Task    22 k-point     1 on node-k98a-015
   Task    23 k-point     1 on node-k98a-015
  Tasks:    24 split into      6 X      4 BLACS grid
  Calculating block size based on n_basis =          180  max_nprow =            6  max_npcol =            4
  ScaLAPACK block size set to:           16
  Allocating        0.012 MB for ovlp
  Allocating        0.012 MB for ham
  Allocating        0.012 MB for eigenvec
  Required Scalapack workspace - INTEGER:            1  REAL:             1
  Partitioning the integration grid into batches with parallel hashing+maxmin method.
  | Number of batches:     1055
  | Maximal batch size:     198
  | Minimal batch size:      21
  | Average batch size:      87.128
  | Standard deviation of batch sizes:      28.180

  Integration load balanced across    24 MPI tasks.
  Work distribution over tasks is as follows:
  Task     0 has       3897 integration points.
  Task     1 has       3793 integration points.
  Task     2 has       3799 integration points.
  Task     3 has       3899 integration points.
  Task     4 has       3774 integration points.
  Task     5 has       3769 integration points.
  Task     6 has       3756 integration points.
  Task     7 has       3837 integration points.
  Task     8 has       3894 integration points.
  Task     9 has       3749 integration points.
  Task    10 has       3833 integration points.
  Task    11 has       3812 integration points.
  Task    12 has       3809 integration points.
  Task    13 has       3799 integration points.
  Task    14 has       3897 integration points.
  Task    15 has       3802 integration points.
  Task    16 has       3809 integration points.
  Task    17 has       3742 integration points.
  Task    18 has       3906 integration points.
  Task    19 has       3853 integration points.
  Task    20 has       3901 integration points.
  Task    21 has       3890 integration points.
  Task    22 has       3805 integration points.
  Task    23 has       3895 integration points.
  Initializing partition tables, free-atom densities, potentials, etc. across the integration grid (initialize_grid_storage).
  | initialize_grid_storage: Actual outermost partition radius vs. multipole_radius_free
  | (-- VB: in principle, multipole_radius_free should be larger, hence this output)
  | Species        1: Confinement radius =              4.999999999999999 AA, multipole_radius_free =              5.004487022111096 AA.
  | Species        1: outer_partition_radius set to              5.004487022111096 AA .
  | Species        2: Confinement radius =              4.999999999999999 AA, multipole_radius_free =              5.009370088163274 AA.
  | Species        2: outer_partition_radius set to              5.009370088163274 AA .
  | The sparse table of interatomic distances needs          1.64 kbyte instead of         1.15 kbyte of memory.
  | Using the partition_type stratmann_smoother will reduce your memory usage.
  | Net number of integration points:    91920
  | of which are non-zero points    :    85665
  Renormalizing the initial density to the exact electron count on the 3D integration grid.
  | Initial density: Formal number of electrons (from input files) :     120.0000000000
  | Integrated number of electrons on 3D grid     :     119.9998963127
  | Charge integration error                      :      -0.0001036873
  | Normalization factor for density and gradient :       1.0000008641
  Renormalizing the free-atom superposition density to the exact electron count on the 3D integration grid.
  | Formal number of electrons (from input files) :     120.0000000000
  | Integrated number of electrons on 3D grid     :     119.9998963127
  | Charge integration error                      :      -0.0001036873
  | Normalization factor for density and gradient :       1.0000008641
  Obtaining max. number of non-zero basis functions in each batch (get_n_compute_maxes).
  | Maximal number of non-zero basis functions:      165 in task     0
  | Maximal number of non-zero basis functions:      166 in task     1
  | Maximal number of non-zero basis functions:      164 in task     2
  | Maximal number of non-zero basis functions:      166 in task     3
  | Maximal number of non-zero basis functions:      165 in task     4
  | Maximal number of non-zero basis functions:      166 in task     5
  | Maximal number of non-zero basis functions:      166 in task     6
  | Maximal number of non-zero basis functions:      165 in task     7
  | Maximal number of non-zero basis functions:      171 in task     8
  | Maximal number of non-zero basis functions:      165 in task     9
  | Maximal number of non-zero basis functions:      159 in task    10
  | Maximal number of non-zero basis functions:      163 in task    11
  | Maximal number of non-zero basis functions:      163 in task    12
  | Maximal number of non-zero basis functions:      160 in task    13
  | Maximal number of non-zero basis functions:      160 in task    14
  | Maximal number of non-zero basis functions:      165 in task    15
  | Maximal number of non-zero basis functions:      165 in task    16
  | Maximal number of non-zero basis functions:      166 in task    17
  | Maximal number of non-zero basis functions:      166 in task    18
  | Maximal number of non-zero basis functions:      165 in task    19
  | Maximal number of non-zero basis functions:      165 in task    20
  | Maximal number of non-zero basis functions:      162 in task    21
  | Maximal number of non-zero basis functions:      167 in task    22
  | Maximal number of non-zero basis functions:      157 in task    23
  Selecting the method for density update.
  Loop over occupied states selected for charge density update.
  Allocating        0.132 MB for KS_eigenvector
  Integrating Hamiltonian matrix: batch-based integration.
  Time summed over all CPUs for integration: real work        0.797 s, elapsed        0.834 s
  Integrating overlap matrix.
  Time summed over all CPUs for integration: real work        0.286 s, elapsed        0.297 s
  Deallocating overlap matrix.

  Updating Kohn-Sham eigenvalues and eigenvectors using ELSI and the ELPA eigensolver.
  Overlap matrix is not singular
  | Lowest and highest eigenvalues :  0.3572E-02,  0.5209E+01
  Finished singularity check of overlap matrix
  | Time :     0.008 s
  Starting ELPA eigensolver
  Finished Cholesky decomposition
  | Time :     0.004 s
  Finished transformation to standard eigenproblem
  | Time :     0.001 s
  Finished solving standard eigenproblem
  | Time :     0.004 s
  Finished back-transformation of eigenvectors
  | Time :     0.001 s

  Obtaining occupation numbers and chemical potential using ELSI.
  | Chemical potential (Fermi level):    -7.75314388 eV
  Writing Kohn-Sham eigenvalues.

  State    Occupation    Eigenvalue [Ha]    Eigenvalue [eV]
      1       2.00000         -55.484889        -1509.82064
      2       2.00000         -55.484154        -1509.80065
      3       2.00000         -55.483019        -1509.76976
      4       2.00000         -24.370339         -663.15067
      5       2.00000         -24.359896         -662.86650
      6       2.00000         -24.359473         -662.85499
      7       2.00000         -24.344075         -662.43597
      8       2.00000         -24.341249         -662.35908
      9       2.00000         -24.341094         -662.35486
     10       2.00000         -24.339654         -662.31567
     11       2.00000         -24.339612         -662.31453
     12       2.00000         -24.339082         -662.30011
     13       2.00000          -3.950328         -107.49391
     14       2.00000          -3.949185         -107.46279
     15       2.00000          -3.947938         -107.42886
     16       2.00000          -2.543190          -69.20372
     17       2.00000          -2.542435          -69.18318
     18       2.00000          -2.542034          -69.17226
     19       2.00000          -2.541146          -69.14809
     20       2.00000          -2.541051          -69.14550
     21       2.00000          -2.540226          -69.12306
     22       2.00000          -2.540082          -69.11914
     23       2.00000          -2.539836          -69.11246
     24       2.00000          -2.539115          -69.09283
     25       2.00000          -1.194164          -32.49485
     26       2.00000          -1.185400          -32.25637
     27       2.00000          -1.175154          -31.97756
     28       2.00000          -1.157766          -31.50441
     29       2.00000          -1.149697          -31.28484
     30       2.00000          -1.149576          -31.28155
     31       2.00000          -1.147990          -31.23839
     32       2.00000          -1.146464          -31.19687
     33       2.00000          -1.145993          -31.18404
     34       2.00000          -0.559536          -15.22576
     35       2.00000          -0.546573          -14.87301
     36       2.00000          -0.542149          -14.75263
     37       2.00000          -0.517331          -14.07728
     38       2.00000          -0.515445          -14.02596
     39       2.00000          -0.511700          -13.92406
     40       2.00000          -0.497893          -13.54835
     41       2.00000          -0.496780          -13.51807
     42       2.00000          -0.494412          -13.45364
     43       2.00000          -0.488146          -13.28313
     44       2.00000          -0.484214          -13.17613
     45       2.00000          -0.483437          -13.15499
     46       2.00000          -0.479218          -13.04018
     47       2.00000          -0.478510          -13.02092
     48       2.00000          -0.477631          -12.99701
     49       2.00000          -0.458173          -12.46752
     50       2.00000          -0.455827          -12.40369
     51       2.00000          -0.453826          -12.34924
     52       2.00000          -0.452512          -12.31348
     53       2.00000          -0.451963          -12.29854
     54       2.00000          -0.451578          -12.28805
     55       2.00000          -0.451036          -12.27331
     56       2.00000          -0.448077          -12.19281
     57       2.00000          -0.448005          -12.19085
     58       2.00000          -0.446919          -12.16128
     59       2.00000          -0.443912          -12.07945
     60       2.00000          -0.441646          -12.01781
     61       0.00000          -0.142195           -3.86932
     62       0.00000          -0.097605           -2.65595
     63       0.00000          -0.078051           -2.12387
     64       0.00000          -0.032101           -0.87350
     65       0.00000          -0.013490           -0.36707
     66       0.00000          -0.000706           -0.01922
     67       0.00000           0.007748            0.21082
     68       0.00000           0.024475            0.66601
     69       0.00000           0.036057            0.98115
     70       0.00000           0.050509            1.37442
     71       0.00000           0.075965            2.06711
     72       0.00000           0.102255            2.78251
     73       0.00000           0.145445            3.95777
     74       0.00000           0.161926            4.40624
     75       0.00000           0.168658            4.58942
     76       0.00000           0.169465            4.61137
     77       0.00000           0.178193            4.84889
     78       0.00000           0.184940            5.03248
     79       0.00000           0.191579            5.21313
     80       0.00000           0.199976            5.44161
     81       0.00000           0.206290            5.61343
     82       0.00000           0.216928            5.90292
     83       0.00000           0.228265            6.21141
     84       0.00000           0.237395            6.45986
     85       0.00000           0.240539            6.54540
     86       0.00000           0.244124            6.64296
     87       0.00000           0.273529            7.44309
     88       0.00000           0.276206            7.51595
     89       0.00000           0.290651            7.90901
     90       0.00000           0.297608            8.09833
     91       0.00000           0.309491            8.42169
     92       0.00000           0.316568            8.61426
     93       0.00000           0.341081            9.28128
     94       0.00000           0.344152            9.36486
     95       0.00000           0.363937            9.90323
     96       0.00000           0.369622           10.05793

  Highest occupied state (VBM) at    -12.01781010 eV
  | Occupation number:      2.00000000

  Lowest unoccupied state (CBM) at    -3.86932289 eV
  | Occupation number:      0.00000000

  Overall HOMO-LUMO gap:      8.14848721 eV.
  Calculating total energy contributions from superposition of free atom densities.

  Total energy components:
  | Sum of eigenvalues            :        -887.46350162 Ha      -24149.11057229 eV
  | XC energy correction          :        -144.31376801 Ha       -3926.97742993 eV
  | XC potential correction       :         187.90374259 Ha        5113.12098861 eV
  | Free-atom electrostatic energy:        -781.48327325 Ha      -21265.24182869 eV
  | Hartree energy correction     :           0.00000000 Ha           0.00000000 eV
  | Entropy correction            :           0.00000000 Ha           0.00000000 eV
  | ---------------------------
  | Total energy                  :       -1625.35680029 Ha      -44228.20884230 eV
  | Total energy, T -> 0          :       -1625.35680029 Ha      -44228.20884230 eV  <-- do not rely on this value for anything but (periodic) metals
  | Electronic free energy        :       -1625.35680029 Ha      -44228.20884230 eV

  Derived energy quantities:
  | Kinetic energy                :        1627.55632727 Ha       44288.06101672 eV
  | Electrostatic energy          :       -3108.59935955 Ha      -84589.29242909 eV
  | Energy correction for multipole
  | error in Hartree potential    :           0.00000000 Ha           0.00000000 eV
  | Sum of eigenvalues per atom                           :       -2012.42588102 eV
  | Total energy (T->0) per atom                          :       -3685.68407019 eV  <-- do not rely on this value for anything but (periodic) metals
  | Electronic free energy per atom                       :       -3685.68407019 eV
  Initialize hartree_potential_storage
  Max. number of atoms included in rho_multipole:           12

  End scf initialization - timings             :  max(cpu_time)    wall_clock(cpu1)
  | Time for scf. initialization                :        0.128 s           0.154 s
  | Boundary condition initialization           :        0.000 s           0.000 s
  | Integration                                 :        0.046 s           0.052 s
  | Solution of K.-S. eqns.                     :        0.017 s           0.024 s
  | Grid partitioning                           :        0.041 s           0.043 s
  | Preloading free-atom quantities on grid     :        0.016 s           0.020 s
  | Free-atom superposition energy              :        0.005 s           0.006 s
  | Total energy evaluation                     :        0.000 s           0.002 s

  Partial memory accounting:
  | Current value for overall tracked memory usage:
  |   Minimum:        0.273 MB (on task 23)
  |   Maximum:        0.292 MB (on task  0)
  |   Average:        0.287 MB
  | Peak value for overall tracked memory usage:
  |   Minimum:        1.301 MB (on task 23 after allocating wave)
  |   Maximum:        1.418 MB (on task  8 after allocating wave)
  |   Average:        1.366 MB
  | Largest tracked array allocation so far:
  |   Minimum:        0.237 MB (H_times_psi on task 23)
  |   Maximum:        0.468 MB (all_coords on task 14)
  |   Average:        0.273 MB
  Note:  These values currently only include a subset of arrays which are explicitly tracked.
  The "true" memory usage will be greater.
------------------------------------------------------------
  Evaluating new KS density.
  Integration grid: deviation in total charge (<rho> - N_e) =   5.684342E-14

  Time for density update prior                :  max(cpu_time)    wall_clock(cpu1)
  | self-consistency iterative process          :        0.029 s           0.034 s

------------------------------------------------------------
          Begin self-consistency iteration #    1

  Date     :  20220517, Time     :  114801.734
------------------------------------------------------------
  Pulay mixing of updated and previous charge densities.
  Renormalizing the density to the exact electron count on the 3D integration grid.
  | Formal number of electrons (from input files) :     120.0000000000
  | Integrated number of electrons on 3D grid     :     120.0000000000
  | Charge integration error                      :      -0.0000000000
  | Normalization factor for density and gradient :       1.0000000000

  Evaluating partitioned Hartree potential by multipole expansion.
  | Original multipole sum: apparent total charge =  -0.693656E-13
  | Sum of charges compensated after spline to logarithmic grids =   0.117243E-03
  | Analytical far-field extrapolation by fixed multipoles:
  | Hartree multipole sum: apparent total charge =  -0.701282E-13
  Summing up the Hartree potential.
  Time summed over all CPUs for potential: real work        0.426 s, elapsed        0.483 s
  | RMS charge density error from multipole expansion :   0.106312E-01

  Integrating Hamiltonian matrix: batch-based integration.
  Time summed over all CPUs for integration: real work        0.667 s, elapsed        0.686 s

  Updating Kohn-Sham eigenvalues and eigenvectors using ELSI and the ELPA eigensolver.
  Starting ELPA eigensolver
  Finished transformation to standard eigenproblem
  | Time :     0.000 s
  Finished solving standard eigenproblem
  | Time :     0.003 s
  Finished back-transformation of eigenvectors
  | Time :     0.001 s

  Obtaining occupation numbers and chemical potential using ELSI.
  | Chemical potential (Fermi level):    -7.81633567 eV
  Writing Kohn-Sham eigenvalues.

  State    Occupation    Eigenvalue [Ha]    Eigenvalue [eV]
      1       2.00000         -55.678646        -1515.09305
      2       2.00000         -55.644713        -1514.16968
      3       2.00000         -55.624532        -1513.62052
      4       2.00000         -24.259084         -660.12326
      5       2.00000         -24.249334         -659.85794
      6       2.00000         -24.247536         -659.80902
      7       2.00000         -24.148998         -657.12768
      8       2.00000         -24.084513         -655.37294
      9       2.00000         -24.065989         -654.86887
     10       2.00000         -24.062402         -654.77126
     11       2.00000         -24.061878         -654.75702
     12       2.00000         -24.060924         -654.73104
     13       2.00000          -4.117580         -112.04506
     14       2.00000          -4.082918         -111.10186
     15       2.00000          -4.064479         -110.60011
     16       2.00000          -2.710960          -73.76897
     17       2.00000          -2.710305          -73.75115
     18       2.00000          -2.709484          -73.72882
     19       2.00000          -2.676524          -72.83193
     20       2.00000          -2.676282          -72.82533
     21       2.00000          -2.673883          -72.76006
     22       2.00000          -2.658557          -72.34303
     23       2.00000          -2.656872          -72.29716
     24       2.00000          -2.655901          -72.27074
     25       2.00000          -1.179659          -32.10017
     26       2.00000          -1.170703          -31.85645
     27       2.00000          -1.157310          -31.49200
     28       2.00000          -1.079220          -29.36707
     29       2.00000          -1.031216          -28.06083
     30       2.00000          -1.014192          -27.59757
     31       2.00000          -1.010086          -27.48584
     32       2.00000          -1.008367          -27.43906
     33       2.00000          -1.005995          -27.37451
     34       2.00000          -0.560858          -15.26173
     35       2.00000          -0.542940          -14.77414
     36       2.00000          -0.531760          -14.46991
     37       2.00000          -0.509384          -13.86104
     38       2.00000          -0.502631          -13.67727
     39       2.00000          -0.477874          -13.00362
     40       2.00000          -0.475165          -12.92991
     41       2.00000          -0.462913          -12.59649
     42       2.00000          -0.453292          -12.33471
     43       2.00000          -0.442528          -12.04179
     44       2.00000          -0.399461          -10.86990
     45       2.00000          -0.391072          -10.64161
     46       2.00000          -0.388161          -10.56239
     47       2.00000          -0.386728          -10.52341
     48       2.00000          -0.380022          -10.34093
     49       2.00000          -0.359239           -9.77540
     50       2.00000          -0.354497           -9.64634
     51       2.00000          -0.341022           -9.27968
     52       2.00000          -0.339968           -9.25100
     53       2.00000          -0.327580           -8.91391
     54       2.00000          -0.327033           -8.89903
     55       2.00000          -0.323970           -8.81568
     56       2.00000          -0.321747           -8.75518
     57       2.00000          -0.316803           -8.62066
     58       2.00000          -0.313962           -8.54335
     59       2.00000          -0.309748           -8.42867
     60       2.00000          -0.306643           -8.34417
     61       0.00000          -0.160181           -4.35873
     62       0.00000          -0.091059           -2.47785
     63       0.00000          -0.083557           -2.27369
     64       0.00000          -0.060935           -1.65812
     65       0.00000          -0.033001           -0.89801
     66       0.00000          -0.020923           -0.56935
     67       0.00000          -0.004905           -0.13346
     68       0.00000           0.018796            0.51147
     69       0.00000           0.030842            0.83927
     70       0.00000           0.041094            1.11823
     71       0.00000           0.051622            1.40471
     72       0.00000           0.086065            2.34195
     73       0.00000           0.133440            3.63110
     74       0.00000           0.156176            4.24976
     75       0.00000           0.158279            4.30700
     76       0.00000           0.166378            4.52738
     77       0.00000           0.182201            4.95795
     78       0.00000           0.185322            5.04287
     79       0.00000           0.189473            5.15583
     80       0.00000           0.199351            5.42461
     81       0.00000           0.206683            5.62412
     82       0.00000           0.210052            5.71581
     83       0.00000           0.217804            5.92675
     84       0.00000           0.222254            6.04784
     85       0.00000           0.229943            6.25708
     86       0.00000           0.232872            6.33678
     87       0.00000           0.249324            6.78445
     88       0.00000           0.264494            7.19725
     89       0.00000           0.273115            7.43183
     90       0.00000           0.292068            7.94757
     91       0.00000           0.301756            8.21121
     92       0.00000           0.319201            8.68590
     93       0.00000           0.333900            9.08588
     94       0.00000           0.347864            9.46587
     95       0.00000           0.364342            9.91424
     96       0.00000           0.369570           10.05651

  Highest occupied state (VBM) at     -8.34417053 eV
  | Occupation number:      2.00000000

  Lowest unoccupied state (CBM) at    -4.35873470 eV
  | Occupation number:      0.00000000

  Overall HOMO-LUMO gap:      3.98543583 eV.

  Total energy components:
  | Sum of eigenvalues            :        -882.17208794 Ha      -24005.12388011 eV
  | XC energy correction          :        -145.65755161 Ha       -3963.54364211 eV
  | XC potential correction       :         189.67022020 Ha        5161.18929015 eV
  | Free-atom electrostatic energy:        -781.48327325 Ha      -21265.24182869 eV
  | Hartree energy correction     :          -5.49264528 Ha        -149.46248251 eV
  | Entropy correction            :           0.00000000 Ha           0.00000000 eV
  | ---------------------------
  | Total energy                  :       -1625.13533787 Ha      -44222.18254328 eV
  | Total energy, T -> 0          :       -1625.13533787 Ha      -44222.18254328 eV  <-- do not rely on this value for anything but (periodic) metals
  | Electronic free energy        :       -1625.13533787 Ha      -44222.18254328 eV

  Derived energy quantities:
  | Kinetic energy                :        1633.97649223 Ha       44462.76259392 eV
  | Electrostatic energy          :       -3113.45427849 Ha      -84721.40149508 eV
  | Energy correction for multipole
  | error in Hartree potential    :           0.03940761 Ha           1.07233556 eV
  | Sum of eigenvalues per atom                           :       -2000.42699001 eV
  | Total energy (T->0) per atom                          :       -3685.18187861 eV  <-- do not rely on this value for anything but (periodic) metals
  | Electronic free energy per atom                       :       -3685.18187861 eV
  Evaluating new KS density.
  Integration grid: deviation in total charge (<rho> - N_e) =   1.421085E-14

  Self-consistency convergence accuracy:
  | Change of charge density      :  0.6039E+00
  | Change of sum of eigenvalues  :  0.1440E+03 eV
  | Change of total energy        :  0.6026E+01 eV


------------------------------------------------------------
  End self-consistency iteration #     1       :  max(cpu_time)    wall_clock(cpu1)
  | Time for this iteration                     :        0.084 s           0.089 s
  | Charge density update                       :        0.027 s           0.027 s
  | Density mixing                              :        0.001 s           0.001 s
  | Hartree multipole update                    :        0.002 s           0.003 s
  | Hartree multipole summation                 :        0.020 s           0.022 s
  | Integration                                 :        0.029 s           0.029 s
  | Solution of K.-S. eqns.                     :        0.004 s           0.005 s
  | Total energy evaluation                     :        0.000 s           0.001 s

  Partial memory accounting:
  | Current value for overall tracked memory usage:
  |   Minimum:        0.273 MB (on task 23)
  |   Maximum:        0.292 MB (on task  0)
  |   Average:        0.287 MB
  | Peak value for overall tracked memory usage:
  |   Minimum:        1.301 MB (on task 23 after allocating wave)
  |   Maximum:        1.418 MB (on task  8 after allocating wave)
  |   Average:        1.366 MB
  | Largest tracked array allocation so far:
  |   Minimum:        0.712 MB (gradient_basis_wave on task 23)
  |   Maximum:        0.775 MB (gradient_basis_wave on task  8)
  |   Average:        0.744 MB
  Note:  These values currently only include a subset of arrays which are explicitly tracked.
  The "true" memory usage will be greater.
------------------------------------------------------------

------------------------------------------------------------
          Begin self-consistency iteration #    2

  Date     :  20220517, Time     :  114801.828
------------------------------------------------------------
  Pulay mixing of updated and previous charge densities.
  Renormalizing the density to the exact electron count on the 3D integration grid.
  | Formal number of electrons (from input files) :     120.0000000000
  | Integrated number of electrons on 3D grid     :     120.0000000000
  | Charge integration error                      :       0.0000000000
  | Normalization factor for density and gradient :       1.0000000000

  Evaluating partitioned Hartree potential by multipole expansion.
  | Original multipole sum: apparent total charge =   0.327642E-13
  | Sum of charges compensated after spline to logarithmic grids =   0.801887E-04
  | Analytical far-field extrapolation by fixed multipoles:
  | Hartree multipole sum: apparent total charge =   0.348796E-13
  Summing up the Hartree potential.
  Time summed over all CPUs for potential: real work        0.381 s, elapsed        0.394 s
  | RMS charge density error from multipole expansion :   0.125517E-01

  Integrating Hamiltonian matrix: batch-based integration.
  Time summed over all CPUs for integration: real work        0.663 s, elapsed        0.682 s

  Updating Kohn-Sham eigenvalues and eigenvectors using ELSI and the ELPA eigensolver.
  Starting ELPA eigensolver
  Finished transformation to standard eigenproblem
  | Time :     0.000 s
  Finished solving standard eigenproblem
  | Time :     0.004 s
  Finished back-transformation of eigenvectors
  | Time :     0.000 s

  Obtaining occupation numbers and chemical potential using ELSI.
  | Chemical potential (Fermi level):    -7.95167266 eV
  Highest occupied state (VBM) at     -9.51845642 eV
  | Occupation number:      2.00000000

  Lowest unoccupied state (CBM) at    -4.58634224 eV
  | Occupation number:      0.00000000

  Overall HOMO-LUMO gap:      4.93211418 eV.

  Checking to see if s.c.f. parameters should be adjusted.

  Total energy components:
  | Sum of eigenvalues            :        -885.36864628 Ha      -24092.10665814 eV
  | XC energy correction          :        -145.15850086 Ha       -3949.96378040 eV
  | XC potential correction       :         189.01366714 Ha        5143.32357230 eV
  | Free-atom electrostatic energy:        -781.48327325 Ha      -21265.24182869 eV
  | Hartree energy correction     :          -2.07282328 Ha         -56.40439118 eV
  | Entropy correction            :           0.00000000 Ha           0.00000000 eV
  | ---------------------------
  | Total energy                  :       -1625.06957653 Ha      -44220.39308610 eV
  | Total energy, T -> 0          :       -1625.06957653 Ha      -44220.39308610 eV  <-- do not rely on this value for anything but (periodic) metals
  | Electronic free energy        :       -1625.06957653 Ha      -44220.39308610 eV

  Derived energy quantities:
  | Kinetic energy                :        1630.05161165 Ha       44355.96115950 eV
  | Electrostatic energy          :       -3109.96268732 Ha      -84626.39046520 eV
  | Energy correction for multipole
  | error in Hartree potential    :           0.04322139 Ha           1.17611390 eV
  | Sum of eigenvalues per atom                           :       -2007.67555484 eV
  | Total energy (T->0) per atom                          :       -3685.03275718 eV  <-- do not rely on this value for anything but (periodic) metals
  | Electronic free energy per atom                       :       -3685.03275718 eV
  Evaluating new KS density.
  Integration grid: deviation in total charge (<rho> - N_e) =   0.000000E+00

  Self-consistency convergence accuracy:
  | Change of charge density      :  0.4826E+00
  | Change of sum of eigenvalues  : -0.8698E+02 eV
  | Change of total energy        :  0.1789E+01 eV


------------------------------------------------------------
  End self-consistency iteration #     2       :  max(cpu_time)    wall_clock(cpu1)
  | Time for this iteration                     :        0.083 s           0.082 s
  | Charge density update                       :        0.027 s           0.027 s
  | Density mixing                              :        0.004 s           0.004 s
  | Hartree multipole update                    :        0.001 s           0.001 s
  | Hartree multipole summation                 :        0.017 s           0.017 s
  | Integration                                 :        0.029 s           0.029 s
  | Solution of K.-S. eqns.                     :        0.004 s           0.004 s
  | Total energy evaluation                     :        0.000 s           0.000 s

  Partial memory accounting:
  | Current value for overall tracked memory usage:
  |   Minimum:        0.274 MB (on task 23)
  |   Maximum:        0.293 MB (on task  0)
  |   Average:        0.288 MB
  | Peak value for overall tracked memory usage:
  |   Minimum:        1.301 MB (on task 23 after allocating wave)
  |   Maximum:        1.418 MB (on task  8 after allocating wave)
  |   Average:        1.366 MB
  | Largest tracked array allocation so far:
  |   Minimum:        0.712 MB (gradient_basis_wave on task 23)
  |   Maximum:        0.775 MB (gradient_basis_wave on task  8)
  |   Average:        0.744 MB
  Note:  These values currently only include a subset of arrays which are explicitly tracked.
  The "true" memory usage will be greater.
------------------------------------------------------------

------------------------------------------------------------
          Begin self-consistency iteration #    3

  Date     :  20220517, Time     :  114801.916
------------------------------------------------------------
  Pulay mixing of updated and previous charge densities.
  Renormalizing the density to the exact electron count on the 3D integration grid.
  | Formal number of electrons (from input files) :     120.0000000000
  | Integrated number of electrons on 3D grid     :     120.0000000000
  | Charge integration error                      :      -0.0000000000
  | Normalization factor for density and gradient :       1.0000000000

  Evaluating partitioned Hartree potential by multipole expansion.
  | Original multipole sum: apparent total charge =  -0.841243E-13
  | Sum of charges compensated after spline to logarithmic grids =   0.104641E-03
  | Analytical far-field extrapolation by fixed multipoles:
  | Hartree multipole sum: apparent total charge =  -0.838291E-13
  Summing up the Hartree potential.
  Time summed over all CPUs for potential: real work        0.381 s, elapsed        0.394 s
  | RMS charge density error from multipole expansion :   0.174312E-01

  Integrating Hamiltonian matrix: batch-based integration.
  Time summed over all CPUs for integration: real work        0.664 s, elapsed        0.682 s

  Updating Kohn-Sham eigenvalues and eigenvectors using ELSI and the ELPA eigensolver.
  Starting ELPA eigensolver
  Finished transformation to standard eigenproblem
  | Time :     0.001 s
  Finished solving standard eigenproblem
  | Time :     0.003 s
  Finished back-transformation of eigenvectors
  | Time :     0.000 s

  Obtaining occupation numbers and chemical potential using ELSI.
  | Chemical potential (Fermi level):    -8.09448976 eV
  Highest occupied state (VBM) at     -9.25390350 eV
  | Occupation number:      2.00000000

  Lowest unoccupied state (CBM) at    -4.85478509 eV
  | Occupation number:      0.00000000

  Overall HOMO-LUMO gap:      4.39911841 eV.

  Total energy components:
  | Sum of eigenvalues            :        -886.42920017 Ha      -24120.96579789 eV
  | XC energy correction          :        -145.12236629 Ha       -3948.98050877 eV
  | XC potential correction       :         188.96486937 Ha        5141.99571745 eV
  | Free-atom electrostatic energy:        -781.48327325 Ha      -21265.24182869 eV
  | Hartree energy correction     :          -0.99864983 Ha         -27.17464450 eV
  | Entropy correction            :           0.00000000 Ha           0.00000000 eV
  | ---------------------------
  | Total energy                  :       -1625.06862017 Ha      -44220.36706240 eV
  | Total energy, T -> 0          :       -1625.06862017 Ha      -44220.36706240 eV  <-- do not rely on this value for anything but (periodic) metals
  | Electronic free energy        :       -1625.06862017 Ha      -44220.36706240 eV

  Derived energy quantities:
  | Kinetic energy                :        1628.28186450 Ha       44307.80388938 eV
  | Electrostatic energy          :       -3108.22811838 Ha      -84579.19044301 eV
  | Energy correction for multipole
  | error in Hartree potential    :           0.05822982 Ha           1.58451395 eV
  | Sum of eigenvalues per atom                           :       -2010.08048316 eV
  | Total energy (T->0) per atom                          :       -3685.03058853 eV  <-- do not rely on this value for anything but (periodic) metals
  | Electronic free energy per atom                       :       -3685.03058853 eV
  Evaluating new KS density.
  Integration grid: deviation in total charge (<rho> - N_e) =   2.842171E-14

  Self-consistency convergence accuracy:
  | Change of charge density      :  0.1273E+00
  | Change of sum of eigenvalues  : -0.2886E+02 eV
  | Change of total energy        :  0.2602E-01 eV


------------------------------------------------------------
  End self-consistency iteration #     3       :  max(cpu_time)    wall_clock(cpu1)
  | Time for this iteration                     :        0.082 s           0.079 s
  | Charge density update                       :        0.027 s           0.027 s
  | Density mixing                              :        0.004 s           0.001 s
  | Hartree multipole update                    :        0.001 s           0.002 s
  | Hartree multipole summation                 :        0.017 s           0.016 s
  | Integration                                 :        0.029 s           0.029 s
  | Solution of K.-S. eqns.                     :        0.004 s           0.004 s
  | Total energy evaluation                     :        0.000 s           0.000 s

  Partial memory accounting:
  | Current value for overall tracked memory usage:
  |   Minimum:        0.274 MB (on task 23)
  |   Maximum:        0.293 MB (on task  0)
  |   Average:        0.288 MB
  | Peak value for overall tracked memory usage:
  |   Minimum:        1.301 MB (on task 23 after allocating wave)
  |   Maximum:        1.418 MB (on task  8 after allocating wave)
  |   Average:        1.366 MB
  | Largest tracked array allocation so far:
  |   Minimum:        0.712 MB (gradient_basis_wave on task 23)
  |   Maximum:        0.775 MB (gradient_basis_wave on task  8)
  |   Average:        0.744 MB
  Note:  These values currently only include a subset of arrays which are explicitly tracked.
  The "true" memory usage will be greater.
------------------------------------------------------------

------------------------------------------------------------
          Begin self-consistency iteration #    4

  Date     :  20220517, Time     :  114802.000
------------------------------------------------------------
  Pulay mixing of updated and previous charge densities.
  Renormalizing the density to the exact electron count on the 3D integration grid.
  | Formal number of electrons (from input files) :     120.0000000000
  | Integrated number of electrons on 3D grid     :     120.0000000000
  | Charge integration error                      :       0.0000000000
  | Normalization factor for density and gradient :       1.0000000000

  Evaluating partitioned Hartree potential by multipole expansion.
  | Original multipole sum: apparent total charge =  -0.214492E-13
  | Sum of charges compensated after spline to logarithmic grids =   0.113717E-03
  | Analytical far-field extrapolation by fixed multipoles:
  | Hartree multipole sum: apparent total charge =  -0.185467E-13
  Summing up the Hartree potential.
  Time summed over all CPUs for potential: real work        0.381 s, elapsed        0.394 s
  | RMS charge density error from multipole expansion :   0.193800E-01

  Integrating Hamiltonian matrix: batch-based integration.
  Time summed over all CPUs for integration: real work        0.664 s, elapsed        0.688 s

  Updating Kohn-Sham eigenvalues and eigenvectors using ELSI and the ELPA eigensolver.
  Starting ELPA eigensolver
  Finished transformation to standard eigenproblem
  | Time :     0.000 s
  Finished solving standard eigenproblem
  | Time :     0.003 s
  Finished back-transformation of eigenvectors
  | Time :     0.000 s

  Obtaining occupation numbers and chemical potential using ELSI.
  | Chemical potential (Fermi level):    -8.07340681 eV
  Highest occupied state (VBM) at     -9.30054078 eV
  | Occupation number:      2.00000000

  Lowest unoccupied state (CBM) at    -4.81765322 eV
  | Occupation number:      0.00000000

  Overall HOMO-LUMO gap:      4.48288756 eV.

  Total energy components:
  | Sum of eigenvalues            :        -886.54845038 Ha      -24124.21076126 eV
  | XC energy correction          :        -145.10629509 Ha       -3948.54318918 eV
  | XC potential correction       :         188.94311174 Ha        5141.40366214 eV
  | Free-atom electrostatic energy:        -781.48327325 Ha      -21265.24182869 eV
  | Hartree energy correction     :          -0.87147108 Ha         -23.71393477 eV
  | Entropy correction            :           0.00000000 Ha           0.00000000 eV
  | ---------------------------
  | Total energy                  :       -1625.06637807 Ha      -44220.30605177 eV
  | Total energy, T -> 0          :       -1625.06637807 Ha      -44220.30605177 eV  <-- do not rely on this value for anything but (periodic) metals
  | Electronic free energy        :       -1625.06637807 Ha      -44220.30605177 eV

  Derived energy quantities:
  | Kinetic energy                :        1627.64502536 Ha       44290.47461465 eV
  | Electrostatic energy          :       -3107.60510834 Ha      -84562.23747723 eV
  | Energy correction for multipole
  | error in Hartree potential    :           0.06380959 Ha           1.73634725 eV
  | Sum of eigenvalues per atom                           :       -2010.35089677 eV
  | Total energy (T->0) per atom                          :       -3685.02550431 eV  <-- do not rely on this value for anything but (periodic) metals
  | Electronic free energy per atom                       :       -3685.02550431 eV
  Evaluating new KS density.
  Integration grid: deviation in total charge (<rho> - N_e) =   5.684342E-14

  Self-consistency convergence accuracy:
  | Change of charge density      :  0.8307E-01
  | Change of sum of eigenvalues  : -0.3245E+01 eV
  | Change of total energy        :  0.6101E-01 eV


------------------------------------------------------------
  End self-consistency iteration #     4       :  max(cpu_time)    wall_clock(cpu1)
  | Time for this iteration                     :        0.082 s           0.081 s
  | Charge density update                       :        0.027 s           0.027 s
  | Density mixing                              :        0.004 s           0.003 s
  | Hartree multipole update                    :        0.001 s           0.001 s
  | Hartree multipole summation                 :        0.017 s           0.017 s
  | Integration                                 :        0.029 s           0.029 s
  | Solution of K.-S. eqns.                     :        0.004 s           0.004 s
  | Total energy evaluation                     :        0.000 s           0.000 s

  Partial memory accounting:
  | Current value for overall tracked memory usage:
  |   Minimum:        0.274 MB (on task 23)
  |   Maximum:        0.293 MB (on task  0)
  |   Average:        0.288 MB
  | Peak value for overall tracked memory usage:
  |   Minimum:        1.301 MB (on task 23 after allocating wave)
  |   Maximum:        1.418 MB (on task  8 after allocating wave)
  |   Average:        1.366 MB
  | Largest tracked array allocation so far:
  |   Minimum:        0.712 MB (gradient_basis_wave on task 23)
  |   Maximum:        0.775 MB (gradient_basis_wave on task  8)
  |   Average:        0.744 MB
  Note:  These values currently only include a subset of arrays which are explicitly tracked.
  The "true" memory usage will be greater.
------------------------------------------------------------

------------------------------------------------------------
          Begin self-consistency iteration #    5

  Date     :  20220517, Time     :  114802.087
------------------------------------------------------------
  Pulay mixing of updated and previous charge densities.
  Renormalizing the density to the exact electron count on the 3D integration grid.
  | Formal number of electrons (from input files) :     120.0000000000
  | Integrated number of electrons on 3D grid     :     120.0000000000
  | Charge integration error                      :       0.0000000000
  | Normalization factor for density and gradient :       1.0000000000

  Evaluating partitioned Hartree potential by multipole expansion.
  | Original multipole sum: apparent total charge =  -0.685785E-13
  | Sum of charges compensated after spline to logarithmic grids =   0.114001E-03
  | Analytical far-field extrapolation by fixed multipoles:
  | Hartree multipole sum: apparent total charge =  -0.680373E-13
  Summing up the Hartree potential.
  Time summed over all CPUs for potential: real work        0.381 s, elapsed        0.394 s
  | RMS charge density error from multipole expansion :   0.191854E-01

  Integrating Hamiltonian matrix: batch-based integration.
  Time summed over all CPUs for integration: real work        0.664 s, elapsed        0.682 s

  Updating Kohn-Sham eigenvalues and eigenvectors using ELSI and the ELPA eigensolver.
  Starting ELPA eigensolver
  Finished transformation to standard eigenproblem
  | Time :     0.000 s
  Finished solving standard eigenproblem
  | Time :     0.003 s
  Finished back-transformation of eigenvectors
  | Time :     0.000 s

  Obtaining occupation numbers and chemical potential using ELSI.
  | Chemical potential (Fermi level):    -8.03837139 eV
  Highest occupied state (VBM) at     -9.36153108 eV
  | Occupation number:      2.00000000

  Lowest unoccupied state (CBM) at    -4.75052167 eV
  | Occupation number:      0.00000000

  Overall HOMO-LUMO gap:      4.61100941 eV.

  Total energy components:
  | Sum of eigenvalues            :        -886.36287589 Ha      -24119.16102233 eV
  | XC energy correction          :        -145.10177550 Ha       -3948.42020477 eV
  | XC potential correction       :         188.93734945 Ha        5141.24686220 eV
  | Free-atom electrostatic energy:        -781.48327325 Ha      -21265.24182869 eV
  | Hartree energy correction     :          -1.05565633 Ha         -28.72587042 eV
  | Entropy correction            :           0.00000000 Ha           0.00000000 eV
[...]
   Total forces(   7)            :  0.226828E+01  0.260855E+00  0.246392E+00
  atom #    8
   Hellmann-Feynman              :  0.967286E+00  0.309566E+00  0.383217E+00
   Ionic forces                  :  0.000000E+00  0.000000E+00  0.000000E+00
   Multipole                     :  0.299268E+00  0.830284E-01  0.385535E+00
   Hartree pot. SCF incomplete   :  0.591404E-06  0.566354E-07  0.123645E-05
   Pulay + GGA                   : -0.253051E+01 -0.732487E+00 -0.157761E+01
   ----------------------------------------------------------------
   Total forces(   8)            : -0.126395E+01 -0.339893E+00 -0.808855E+00
  atom #    9
   Hellmann-Feynman              :  0.459547E+00  0.273995E+01  0.124523E+01
   Ionic forces                  :  0.000000E+00  0.000000E+00  0.000000E+00
   Multipole                     :  0.145191E+00  0.650590E+00  0.242429E+00
   Hartree pot. SCF incomplete   : -0.491253E-06  0.947696E-06  0.106146E-05
   Pulay + GGA                   : -0.115658E+01 -0.613033E+01 -0.297890E+01
   ----------------------------------------------------------------
   Total forces(   9)            : -0.551843E+00 -0.273979E+01 -0.149124E+01
  atom #   10
   Hellmann-Feynman              :  0.122467E+01 -0.259739E+01  0.759716E+00
   Ionic forces                  :  0.000000E+00  0.000000E+00  0.000000E+00
   Multipole                     :  0.327271E+00 -0.597269E+00  0.146763E+00
   Hartree pot. SCF incomplete   : -0.276922E-06 -0.120232E-05  0.380319E-06
   Pulay + GGA                   : -0.290941E+01  0.584984E+01 -0.206121E+01
   ----------------------------------------------------------------
   Total forces(  10)            : -0.135747E+01  0.265518E+01 -0.115473E+01
  atom #   11
   Hellmann-Feynman              : -0.230048E+01 -0.319463E+00  0.257646E+01
   Ionic forces                  :  0.000000E+00  0.000000E+00  0.000000E+00
   Multipole                     : -0.382815E+00 -0.259536E-01  0.541160E+00
   Hartree pot. SCF incomplete   : -0.205709E-05 -0.464187E-06  0.101631E-05
   Pulay + GGA                   :  0.471491E+01  0.583600E+00 -0.559115E+01
   ----------------------------------------------------------------
   Total forces(  11)            :  0.203162E+01  0.238183E+00 -0.247353E+01
  atom #   12
   Hellmann-Feynman              :  0.191720E+01  0.288047E+00 -0.266927E+01
   Ionic forces                  :  0.000000E+00  0.000000E+00  0.000000E+00
   Multipole                     :  0.487025E+00  0.763822E-01 -0.661550E+00
   Hartree pot. SCF incomplete   : -0.429376E-06 -0.263470E-06 -0.132997E-06
   Pulay + GGA                   : -0.458252E+01 -0.713946E+00  0.602053E+01
   ----------------------------------------------------------------
   Total forces(  12)            : -0.217829E+01 -0.349518E+00  0.268971E+01


  Self-consistency convergence accuracy:
  | Change of charge density      :  0.1244E-06
  | Change of sum of eigenvalues  : -0.8020E-05 eV
  | Change of total energy        :  0.4950E-09 eV
  | Change of forces              :  0.3825E-06 eV/A

  Writing Kohn-Sham eigenvalues.

  State    Occupation    Eigenvalue [Ha]    Eigenvalue [eV]
      1       2.00000         -55.670242        -1514.86437
      2       2.00000         -55.629066        -1513.74391
      3       2.00000         -55.600492        -1512.96637
      4       2.00000         -24.326939         -661.96968
      5       2.00000         -24.323796         -661.88418
      6       2.00000         -24.323350         -661.87204
      7       2.00000         -24.251152         -659.90741
      8       2.00000         -24.235705         -659.48708
      9       2.00000         -24.206317         -658.68740
     10       2.00000         -24.204612         -658.64099
     11       2.00000         -24.196884         -658.43071
     12       2.00000         -24.196050         -658.40801
     13       2.00000          -4.122897         -112.18974
     14       2.00000          -4.080726         -111.04221
     15       2.00000          -4.053940         -110.31332
     16       2.00000          -2.715910          -73.90368
     17       2.00000          -2.714987          -73.87856
     18       2.00000          -2.712403          -73.80824
     19       2.00000          -2.674871          -72.78695
     20       2.00000          -2.672826          -72.73131
     21       2.00000          -2.669001          -72.62721
     22       2.00000          -2.648649          -72.07339
     23       2.00000          -2.644868          -71.97053
     24       2.00000          -2.642969          -71.91885
     25       2.00000          -1.202369          -32.71814
     26       2.00000          -1.195458          -32.53007
     27       2.00000          -1.183366          -32.20102
     28       2.00000          -1.104776          -30.06249
     29       2.00000          -1.082711          -29.46208
     30       2.00000          -1.054676          -28.69920
     31       2.00000          -1.050442          -28.58399
     32       2.00000          -1.045066          -28.43770
     33       2.00000          -1.041614          -28.34377
     34       2.00000          -0.582416          -15.84835
     35       2.00000          -0.564624          -15.36420
     36       2.00000          -0.553484          -15.06108
     37       2.00000          -0.534859          -14.55426
     38       2.00000          -0.525150          -14.29007
     39       2.00000          -0.499696          -13.59742
     40       2.00000          -0.496799          -13.51860
     41       2.00000          -0.490553          -13.34863
     42       2.00000          -0.476804          -12.97449
     43       2.00000          -0.466403          -12.69148
     44       2.00000          -0.442403          -12.03839
     45       2.00000          -0.427467          -11.63197
     46       2.00000          -0.415749          -11.31311
     47       2.00000          -0.411247          -11.19060
     48       2.00000          -0.408503          -11.11592
     49       2.00000          -0.399395          -10.86808
     50       2.00000          -0.389363          -10.59511
     51       2.00000          -0.387363          -10.54069
     52       2.00000          -0.386993          -10.53062
     53       2.00000          -0.363731           -9.89762
     54       2.00000          -0.362493           -9.86394
     55       2.00000          -0.356212           -9.69301
     56       2.00000          -0.355921           -9.68511
     57       2.00000          -0.353501           -9.61924
     58       2.00000          -0.347383           -9.45277
     59       2.00000          -0.346115           -9.41827
     60       2.00000          -0.343125           -9.33690
     61       0.00000          -0.174590           -4.75083
     62       0.00000          -0.104058           -2.83157
     63       0.00000          -0.092428           -2.51509
     64       0.00000          -0.068284           -1.85809
     65       0.00000          -0.039303           -1.06949
     66       0.00000          -0.029092           -0.79163
     67       0.00000          -0.010446           -0.28426
     68       0.00000           0.015258            0.41520
     69       0.00000           0.027898            0.75913
     70       0.00000           0.036839            1.00244
     71       0.00000           0.048613            1.32283
     72       0.00000           0.079242            2.15629
     73       0.00000           0.126153            3.43280
     74       0.00000           0.147773            4.02110
     75       0.00000           0.149867            4.07808
     76       0.00000           0.159540            4.34129
     77       0.00000           0.174993            4.76180
     78       0.00000           0.179420            4.88225
     79       0.00000           0.185474            5.04702
     80       0.00000           0.194450            5.29125
     81       0.00000           0.200561            5.45755
     82       0.00000           0.205438            5.59025
     83       0.00000           0.211053            5.74304
     84       0.00000           0.217175            5.90964
     85       0.00000           0.225461            6.13510
     86       0.00000           0.225670            6.14078
     87       0.00000           0.244773            6.66060
     88       0.00000           0.257062            6.99501
     89       0.00000           0.269558            7.33505
     90       0.00000           0.285668            7.77342
     91       0.00000           0.298986            8.13583
     92       0.00000           0.314648            8.56201
     93       0.00000           0.327091            8.90060
     94       0.00000           0.342419            9.31769
     95       0.00000           0.356935            9.71270
     96       0.00000           0.361279            9.83089

  Highest occupied state (VBM) at     -9.33689937 eV
  | Occupation number:      2.00000000

  Lowest unoccupied state (CBM) at    -4.75082714 eV
  | Occupation number:      0.00000000

  Overall HOMO-LUMO gap:      4.58607223 eV.
  | Chemical Potential                          :    -8.03663065 eV

  Self-consistency cycle converged.


------------------------------------------------------------
  End self-consistency iteration #    14       :  max(cpu_time)    wall_clock(cpu1)
  | Time for this iteration                     :        0.267 s           0.266 s
  | Charge density & force component update     :        0.145 s           0.145 s
  | Density mixing                              :        0.005 s           0.004 s
  | Hartree multipole update                    :        0.001 s           0.001 s
  | Hartree multipole summation                 :        0.050 s           0.050 s
  | Hartree pot. SCF incomplete forces          :        0.032 s           0.032 s
  | Integration                                 :        0.029 s           0.029 s
  | Solution of K.-S. eqns.                     :        0.004 s           0.004 s
  | Total energy evaluation                     :        0.000 s           0.000 s

  Partial memory accounting:
  | Current value for overall tracked memory usage:
  |   Minimum:        0.274 MB (on task 23)
  |   Maximum:        0.293 MB (on task  0)
  |   Average:        0.289 MB
  | Peak value for overall tracked memory usage:
  |   Minimum:        2.918 MB (on task 23 after allocating hessian_basis_wave)
  |   Maximum:        3.148 MB (on task  8 after allocating hessian_basis_wave)
  |   Average:        3.042 MB
  | Largest tracked array allocation so far:
  |   Minimum:        1.423 MB (hessian_basis_wave on task 23)
  |   Maximum:        1.550 MB (hessian_basis_wave on task  8)
  |   Average:        1.489 MB
  Note:  These values currently only include a subset of arrays which are explicitly tracked.
  The "true" memory usage will be greater.
------------------------------------------------------------
  Removing unitary transformations (pure translations, rotations) from forces on atoms.
  Atomic forces before filtering:
  | Net force on center of mass :  -0.681277E-02 -0.471947E-02 -0.506921E-02 eV/A
  | Net torque on center of mass:  -0.400777E-02 -0.151611E-01  0.793223E-02 eV
  Atomic forces after filtering:
  | Net force on center of mass :   0.000000E+00 -0.758226E-15 -0.713624E-15 eV/A
  | Net torque on center of mass:   0.151054E-14 -0.377634E-14 -0.302107E-14 eV

  Energy and forces in a compact form:
  | Total energy uncorrected      :         -0.442203018126516E+05 eV
  | Total energy corrected        :         -0.442203018126516E+05 eV  <-- do not rely on this value for anything but (periodic) metals
  | Electronic free energy        :         -0.442203018126516E+05 eV
  Total atomic forces (unitary forces cleaned) [eV/Ang]:
  |    1          0.179714422818948E+01          0.262779053889728E+00         -0.203187376219482E+01
  |    2          0.460751182737035E+00         -0.327788904046111E-01          0.213853076747088E+01
  |    3         -0.310872797260391E+01         -0.715477297678990E+00         -0.255134245265222E+00
  |    4          0.100013478576539E+01          0.498863847359458E+00          0.304973266547817E+01
  |    5         -0.551860194657012E-01          0.225058683259098E+01         -0.109965467382869E+00
  |    6          0.952937722163742E+00         -0.199056647641584E+01          0.198968017408261E+00
  |    7          0.226911629526345E+01          0.261288060562018E+00          0.246978685631331E+00
  |    8         -0.126320286671377E+01         -0.339826380977918E+00         -0.808792987363571E+00
  |    9         -0.550375802108724E+00         -0.273976781358819E+01         -0.149092864094390E+01
  |   10         -0.135654594651611E+01          0.265515017758148E+01         -0.115472482013224E+01
  |   11          0.203213122016838E+01          0.239032285446812E+00         -0.247252072473310E+01
  |   12         -0.217817682687925E+01         -0.349283398364932E+00          0.268973051202710E+01

  ------------------------------------ 
  Start decomposition of the XC Energy 
  ------------------------------------ 
  X and C from original XC functional choice 
  Hartree-Fock Energy :          0.000000000 Ha              0.000000000 eV
  X Energy            :       -140.166209595 Ha          -3814.116623190 eV
  C Energy            :         -4.939800887 Ha           -134.418821289 eV
  Total XC Energy     :       -145.106010482 Ha          -3948.535444480 eV
  ------------------------------------ 
  LDA X and C from self-consistent density 
  X Energy LDA        :       -132.738435246 Ha          -3611.996599411 eV
  C Energy LDA        :         -8.822415601 Ha           -240.070143143 eV
  ------------------------------------ 
  End decomposition of the XC Energy 
  ------------------------------------ 

------------------------------------------------------------

------------------------------------------------------------------------------
  Final output of selected total energy values:

  The following output summarizes some interesting total energy values
  at the end of a run (AFTER all relaxation, molecular dynamics, etc.).

  | Total energy of the DFT / Hartree-Fock s.c.f. calculation      :         -44220.301812652 eV
  | Final zero-broadening corrected energy (caution - metals only) :         -44220.301812652 eV
  | For reference only, the value of 1 Hartree used in FHI-aims is :             27.211384500 eV

  Before relying on these values, please be sure to understand exactly which
  total energy value is referred to by a given number. Different objects may
  all carry the same name 'total energy'. Definitions:

  Total energy of the DFT / Hartree-Fock s.c.f. calculation:
  | Note that this energy does not include ANY quantities calculated after the
  | s.c.f. cycle, in particular not ANY RPA, MP2, etc. many-body perturbation terms.

  Final zero-broadening corrected energy:
  | For metallic systems only, a broadening of the occupation numbers at the Fermi
  | level can be extrapolated back to zero broadening by an electron-gas inspired
  | formula. For all systems that are not real metals, this value can be
  | meaningless and should be avoided.

------------------------------------------------------------------------------
  Methods described in the following list of references were used in this FHI-aims run.
  If you publish the results, please make sure to cite these reference if they apply.
  FHI-aims is an academic code, and for our developers (often, Ph.D. students
  and postdocs), scientific credit in the community is essential.
  Thank you for helping us!

  For any use of FHI-aims, please cite:

    Volker Blum, Ralf Gehrke, Felix Hanke, Paula Havu, Ville Havu,
    Xinguo Ren, Karsten Reuter, and Matthias Scheffler
    'Ab initio molecular simulations with numeric atom-centered orbitals'
    Computer Physics Communications 180, 2175-2196 (2009)
    http://dx.doi.org/10.1016/j.cpc.2009.06.022


  The ELSI infrastructure was used in your run to solve the Kohn-Sham electronic structure.
  Please check out http://elsi-interchange.org to learn more.
  If scalability is important for your project, please acknowledge ELSI by citing:

    V. W-z. Yu, F. Corsetti, A. Garcia, W. P. Huhn, M. Jacquelin, W. Jia,
    B. Lange, L. Lin, J. Lu, W. Mi, A. Seifitokaldani, A. Vazquez-Mayagoitia,
    C. Yang, H. Yang, and V. Blum
    'ELSI: A unified software interface for Kohn-Sham electronic structure solvers'
    Computer Physics Communications 222, 267-285 (2018).
    http://dx.doi.org/10.1016/j.cpc.2017.09.007


  For the real-space grid partitioning and parallelization used in this calculation, please cite:

    Ville Havu, Volker Blum, Paula Havu, and Matthias Scheffler,
    'Efficient O(N) integration for all-electron electronic structure calculation'
    'using numerically tabulated basis functions'
    Journal of Computational Physics 228, 8367-8379 (2009).
    http://dx.doi.org/10.1016/j.jcp.2009.08.008

  Of course, there are many other important community references, e.g., those cited in the
  above references. Our list is limited to references that describe implementations in the
  FHI-aims code. The reason is purely practical (length of this list) - please credit others as well.

------------------------------------------------------------
          Leaving FHI-aims.
          Date     :  20220517, Time     :  114803.334

          Computational steps:
          | Number of self-consistency cycles          :           14
          | Number of SCF (re)initializations          :            1

          Detailed time accounting                     :  max(cpu_time)    wall_clock(cpu1)
          | Total time                                  :        2.016 s           2.218 s
          | Preparation time                            :        0.191 s           0.208 s
          | Boundary condition initalization            :        0.000 s           0.000 s
          | Grid partitioning                           :        0.041 s           0.043 s
          | Preloading free-atom quantities on grid     :        0.016 s           0.020 s
          | Free-atom superposition energy              :        0.005 s           0.006 s
          | Total time for integrations                 :        0.450 s           0.457 s
          | Total time for solution of K.-S. equations  :        0.074 s           0.081 s
          | Total time for density & force components   :        0.639 s           0.647 s
          | Total time for mixing                       :        0.059 s           0.034 s
          | Total time for Hartree multipole update     :        0.019 s           0.019 s
          | Total time for Hartree multipole sum        :        0.306 s           0.309 s
          | Total time for total energy evaluation      :        0.002 s           0.004 s
          | Total time NSC force correction             :        0.064 s           0.065 s
          | Total time for scaled ZORA corrections      :        0.000 s           0.000 s

          Partial memory accounting:
          | Residual value for overall tracked memory usage across tasks:     0.000000 MB (should be 0.000000 MB)
          | Peak values for overall tracked memory usage:
          |   Minimum:        2.918 MB (on task 23 after allocating hessian_basis_wave)
          |   Maximum:        3.148 MB (on task  8 after allocating hessian_basis_wave)
          |   Average:        3.042 MB
          | Largest tracked array allocation:
          |   Minimum:        1.423 MB (hessian_basis_wave on task 23)
          |   Maximum:        1.550 MB (hessian_basis_wave on task  8)
          |   Average:        1.489 MB
          Note:  These values currently only include a subset of arrays which are explicitly tracked.
          The "true" memory usage will be greater.

          Have a nice day.
------------------------------------------------------------
