12
Properties=species:S:1:pos:R:3:forces:R:3 energy=-187.09691891 pbc="F F F"
Al    0.29929959300000003    -0.46850295799999997    1.685111939    -0.341425    -0.022792    -0.162786
Al    2.3025869649999997    -1.957693272    -0.581001497    0.157998    -0.137862    -0.22401
Al    -0.8765979810000001    -1.783597358    -1.034059743    0.128358    0.217305    0.373813
F    3.500381507    -0.561937393    -0.8917445799999999    0.174878    -0.186377    -0.132024
F    -2.171107054    -0.485454088    -1.5051091970000001    0.042104    0.224859    0.13314
F    3.003404795    -3.635481294    -0.319016643    0.233767    0.046273    -0.163987
F    -0.9485343660000001    -3.616607802    -1.29841592    0.122558    -0.137142    0.201352
F    1.631779797    -1.548759793    1.044831602    -0.075874    -0.025923    -0.034897
F    0.8591249639999999    -1.705030082    -1.737863665    -0.000743    0.000413    0.006641
F    0.287803352    -1.097405363    3.422245289    -0.221841    -0.021865    -0.017748
F    0.377175571    1.307381899    1.337141136    -0.140083    0.004871    -0.017067
F    -1.0076822680000002    -1.315834983    0.734911814    -0.079697    0.03824    0.037574
