********************************************************************************
*                       GENERAL UTILITY LATTICE PROGRAM                        *
*                                 Julian Gale                                  *
*                       Curtin Institute for Computation                       *
*                           Department of Chemistry                            *
*                    Curtin University, Western Australia                      *
********************************************************************************
* Version = 5.1.1 * Last modified =  24th November 2018                        *
********************************************************************************
*  optimise     - perform optimisation run                                     *
*  conp         - constant pressure calculation                                *
*  shell        - only shells and radii to be optimised                        *
*  phonon       - calculate phonons for final geometry                         *
*  eigenvectors - output phonon eigenvectors                                   *
********************************************************************************

  Job Started  at 14:39.53 25th May        2022                               

  Number of CPUs =     1

  Host name      = login03                                 


  Total number of configurations input =      1

********************************************************************************
*  Input for Configuration =   1                                               *
********************************************************************************

  Formula = Al3F9                                                       

  Number of irreducible atoms/shells =      21


  Total number atoms/shells =      21

  Dimensionality = 0               :  Cluster


  Charge on cluster =  -0.000000


  Initial cluster dipoles : x =      0.738619 e.Angs
                            y =     -0.241983 e.Angs
                            z =     -1.694768 e.Angs

  Temperature of configuration =  0.000     K 

  Symmetry number =      1

  Cartesian coordinates of cluster :

--------------------------------------------------------------------------------
   No.  Atomic       x           y          z         Charge      Occupancy
        Label      (Angs)      (Angs)     (Angs)        (e)         (Frac)  
--------------------------------------------------------------------------------
      1 Al    c     -0.0376      1.5767      1.7942     3.00000    1.000000    
      2 Al    c      2.5716      2.5933      1.8573     3.00000    1.000000    
      3 Al    c      1.2628      2.6169     -0.6117     3.00000    1.000000    
      4 F     c      1.0128      3.0052      2.8034     0.59000    1.000000    
      5 F     c     -1.4922      2.6236      2.1907     0.59000    1.000000    
      6 F     c     -0.4485      0.0747      2.7642     0.59000    1.000000    
      7 F     c      1.5245      0.8957      2.0162     0.59000    1.000000    
      8 F     c      2.8955      1.9246     -0.1691     0.59000    1.000000    
      9 F     c      1.1358      3.0493     -2.3476     0.59000    1.000000    
     10 F     c      1.6847      3.9873      0.4854     0.59000    1.000000    
     11 F     c      4.2049      3.1720      2.5128     0.59000    1.000000    
     12 F     c      0.1341      1.8702      0.5582     0.59000    1.000000    
     13 F     s      1.0128 *    3.0052 *    2.8034 *  -1.59000    1.000000    
     14 F     s     -1.4922 *    2.6236 *    2.1907 *  -1.59000    1.000000    
     15 F     s     -0.4485 *    0.0747 *    2.7642 *  -1.59000    1.000000    
     16 F     s      1.5245 *    0.8957 *    2.0162 *  -1.59000    1.000000    
     17 F     s      2.8955 *    1.9246 *   -0.1691 *  -1.59000    1.000000    
     18 F     s      1.1358 *    3.0493 *   -2.3476 *  -1.59000    1.000000    
     19 F     s      1.6847 *    3.9873 *    0.4854 *  -1.59000    1.000000    
     20 F     s      4.2049 *    3.1720 *    2.5128 *  -1.59000    1.000000    
     21 F     s      0.1341 *    1.8702 *    0.5582 *  -1.59000    1.000000    
--------------------------------------------------------------------------------


  Brillouin zone sampling points :

--------------------------------------------------------------------------------
  Point number          x          y          z            Weight
--------------------------------------------------------------------------------
        1           0.000000   0.000000   0.000000     1.00000000
--------------------------------------------------------------------------------


********************************************************************************
*  General input information                                                   *
********************************************************************************

  Species output for all configurations : 

--------------------------------------------------------------------------------
  Species    Type    Atomic    Atomic    Charge       Radii (Angs)     Library
                     Number     Mass       (e)     Cova   Ionic  VDW   Symbol
--------------------------------------------------------------------------------
    Al       Core       13      26.98   3.000000   1.350  0.000  2.050          
    F        Core        9      19.00   0.590000   0.710  0.000  1.300          
    F        Shell       9       0.00  -1.590000   0.710  0.000  1.300          
--------------------------------------------------------------------------------


  Accuracy factor for short range sums = 12.000

  Time limit = Infinity

  Maximum range for interatomic potentials =    100000.000000 Angstroms

  General interatomic potentials :

--------------------------------------------------------------------------------
Atom  Types   Potential      Parameter       Value         Units   Cutoffs(Ang)
  1     2                                                            Min /  Max 
--------------------------------------------------------------------------------
Al   c F    s Buckingham    Buckingham A     3760.0008    eV        0.000 10.000
                            Buckingham rho  0.22200000    Ang       
                            Buckingham C     0.0000000    eV*Ang^6  
--------------------------------------------------------------------------------
F    s F    s Buck 4 range  Buck4 A          1127.7000    eV        0.000 12.000
                            Buck4 rho       0.27530000    Ang       
                            Buck4 C          15.830000    eV*Ang^6  
                            Buck4 minimum    2.7900000    Ang       
--------------------------------------------------------------------------------
F    c F    s Spring (c-s)  Spring k 2       20.770000    eV*Ang^-2 0.000  0.800
                            Spring k 4       0.0000000    eV*Ang^-4 
--------------------------------------------------------------------------------

********************************************************************************
*  Output for configuration   1                                                *
********************************************************************************


  Components of energy : 

--------------------------------------------------------------------------------
  Interatomic potentials     =          23.44122963 eV    
  Monopole - monopole (real) =        -186.53253102 eV    
--------------------------------------------------------------------------------
  Total lattice energy       =        -163.09130139 eV    
--------------------------------------------------------------------------------
  Total lattice energy       =          -15735.8175 kJ/mol
--------------------------------------------------------------------------------


  Number of variables =       27

  Maximum number of calculations  =          2000
  Maximum Hessian update interval =            10
  Maximum step size               =   1.000000000
  Maximum parameter tolerance     =   0.000001000
  Maximum function  tolerance     =   0.000010000
  Maximum gradient  tolerance     =   0.000000010
  Maximum gradient  component     =   0.010000000

  Symmetry not applied to optimisation

  Newton-Raphson optimiser to be used

  BFGS hessian update to be used

  Lower half triangular hessian to be used

  Minimiser to switch to RFO
  When gradient norm is less than     0.010000

  Shell only optimisation

  Start of cluster optimisation :

  Cycle:      0 Energy:      -163.091301  Gnorm:      1.731494  CPU:    0.004
  ** Hessian calculated **
  Cycle:      1 Energy:      -179.123573  Gnorm:      0.715359  CPU:    0.006
  ** Hessian calculated **
  Cycle:      2 Energy:      -181.219182  Gnorm:      0.084096  CPU:    0.008
  Cycle:      3 Energy:      -181.262786  Gnorm:      0.020301  CPU:    0.009
  Cycle:      4 Energy:      -181.265347  Gnorm:      0.003296  CPU:    0.011
  ** Hessian has required structure
  Cycle:      5 Energy:      -181.265402  Gnorm:      0.001254  CPU:    0.013
  ** Hessian has required structure
  Cycle:      6 Energy:      -181.265411  Gnorm:      0.000652  CPU:    0.014
  ** Hessian has required structure
  Cycle:      7 Energy:      -181.265413  Gnorm:      0.000313  CPU:    0.015
  ** Hessian has required structure
  Cycle:      8 Energy:      -181.265414  Gnorm:      0.000186  CPU:    0.017
  ** Hessian has required structure
  Cycle:      9 Energy:      -181.265414  Gnorm:      0.000128  CPU:    0.018
  ** Hessian has required structure
  Cycle:     10 Energy:      -181.265414  Gnorm:      0.000084  CPU:    0.020
  ** Hessian has required structure
  Cycle:     11 Energy:      -181.265414  Gnorm:      0.000060  CPU:    0.021
  ** Hessian has required structure

  XYZ File written as 004/4/sp_mod_-70/sp_mod_-70_eig.xyz



  **** Optimisation achieved ****


  Final energy =    -181.26541417 eV
  Final Gnorm  =       0.00000000

  Components of energy : 

--------------------------------------------------------------------------------
  Interatomic potentials     =          42.12743133 eV    
  Monopole - monopole (real) =        -223.39284551 eV    
--------------------------------------------------------------------------------
  Total lattice energy       =        -181.26541417 eV    
--------------------------------------------------------------------------------
  Total lattice energy       =          -17489.3416 kJ/mol
--------------------------------------------------------------------------------

  Final cartesian coordinates of atoms :

--------------------------------------------------------------------------------
   No.  Atomic        x           y          z          Radius
        Label       (Angs)      (Angs)     (Angs)       (Angs) 
--------------------------------------------------------------------------------
     1  Al    c    -0.037620    1.576673    1.794157    0.000000
     2  Al    c     2.571587    2.593294    1.857293    0.000000
     3  Al    c     1.262781    2.616867   -0.611700    0.000000
     4  F     c     1.012754    3.005229    2.803363    0.000000
     5  F     c    -1.492151    2.623554    2.190655    0.000000
     6  F     c    -0.448470    0.074703    2.764153    0.000000
     7  F     c     1.524471    0.895659    2.016163    0.000000
     8  F     c     2.895544    1.924610   -0.169089    0.000000
     9  F     c     1.135825    3.049297   -2.347554    0.000000
    10  F     c     1.684706    3.987252    0.485373    0.000000
    11  F     c     4.204853    3.172016    2.512772    0.000000
    12  F     c     0.134096    1.870165    0.558180    0.000000
    13  F     s     1.140843    2.897802    2.620329    0.000000
    14  F     s    -1.289070    2.496168    2.083944    0.000000
    15  F     s    -0.392139    0.262257    2.585372    0.000000
    16  F     s     1.604044    1.135945    1.888457    0.000000
    17  F     s     2.691919    2.014248   -0.054180    0.000000
    18  F     s     1.135199    2.967726   -2.082382    0.000000
    19  F     s     1.691805    3.739685    0.485328    0.000000
    20  F     s     3.926541    3.060867    2.395801    0.000000
    21  F     s     0.225532    1.906112    0.340242    0.000000
--------------------------------------------------------------------------------


  Final Cartesian derivatives :

--------------------------------------------------------------------------------
   No.  Atomic          x             y             z           Radius
        Label       (eV/Angs)     (eV/Angs)    (eV/Angs)      (eV/Angs)
--------------------------------------------------------------------------------
      1 Al    c       0.000000      0.000000      0.000000      0.000000
      2 Al    c       0.000000      0.000000      0.000000      0.000000
      3 Al    c       0.000000      0.000000      0.000000      0.000000
      4 F     c       0.000000      0.000000      0.000000      0.000000
      5 F     c       0.000000      0.000000      0.000000      0.000000
      6 F     c       0.000000      0.000000      0.000000      0.000000
      7 F     c       0.000000      0.000000      0.000000      0.000000
      8 F     c       0.000000      0.000000      0.000000      0.000000
      9 F     c       0.000000      0.000000      0.000000      0.000000
     10 F     c       0.000000      0.000000      0.000000      0.000000
     11 F     c       0.000000      0.000000      0.000000      0.000000
     12 F     c       0.000000      0.000000      0.000000      0.000000
     13 F     s       0.000000     -0.000000     -0.000000      0.000000
     14 F     s       0.000000     -0.000000      0.000000      0.000000
     15 F     s       0.000000      0.000000     -0.000000      0.000000
     16 F     s       0.000000      0.000000      0.000000      0.000000
     17 F     s       0.000000     -0.000000     -0.000000      0.000000
     18 F     s       0.000000      0.000000     -0.000000      0.000000
     19 F     s       0.000000      0.000000      0.000000      0.000000
     20 F     s       0.000000     -0.000000     -0.000000      0.000000
     21 F     s      -0.000000      0.000000     -0.000000      0.000000
--------------------------------------------------------------------------------
  Maximum abs         0.000000      0.000000      0.000000      0.000000
--------------------------------------------------------------------------------


  Born effective charge tensors : 

-------------------------------------------------------------------------------
  Atom             x           y             z
-------------------------------------------------------------------------------
    1 Al    x       1.0597      0.4963      0.0940
            y       0.5342      0.8953      0.3611
            z       0.2432      0.4507      0.4268
-------------------------------------------------------------------------------
    2 Al    x       0.9144     -0.2525     -0.0053
            y      -0.3198      1.4408     -0.2109
            z       0.0886     -0.1848      1.9924
-------------------------------------------------------------------------------
    3 Al    x       0.8461     -0.0914      0.0334
            y      -0.0561      0.9530      0.0970
            z      -0.1745     -0.0267      0.7030
-------------------------------------------------------------------------------
    4 F     x      -0.3291     -0.1748     -0.1848
            y      -0.2498     -0.4969     -0.0654
            z      -0.1892     -0.0268     -0.4093
-------------------------------------------------------------------------------
    5 F     x      -0.2705     -0.2372     -0.0384
            y      -0.2315     -0.3441      0.0168
            z      -0.0684      0.0406     -0.4877
-------------------------------------------------------------------------------
    6 F     x      -0.5333      0.0703     -0.0544
            y       0.0236     -0.1726     -0.2101
            z       0.0031     -0.1791     -0.3795
-------------------------------------------------------------------------------
    7 F     x      -0.2624     -0.0979     -0.0512
            y       0.0206     -0.3317      0.0073
            z       0.0518      0.0252     -0.4068
-------------------------------------------------------------------------------
    8 F     x      -0.2117     -0.0257      0.2008
            y      -0.0720     -0.3511     -0.1900
            z       0.0208     -0.0739     -0.7130
-------------------------------------------------------------------------------
    9 F     x      -0.5256     -0.0302      0.0567
            y      -0.0150     -0.4687     -0.1257
            z      -0.0053     -0.1594      0.0535
-------------------------------------------------------------------------------
   10 F     x      -0.4167      0.1087     -0.0726
            y       0.1731     -0.3979      0.3711
            z      -0.0033      0.2011     -0.4110
-------------------------------------------------------------------------------
   11 F     x      -0.0785      0.1798      0.1908
            y       0.1480     -0.4782      0.0787
            z       0.1822      0.0799     -0.4874
-------------------------------------------------------------------------------
   12 F     x      -0.1922      0.0545     -0.1690
            y       0.0447     -0.2481     -0.1300
            z      -0.1491     -0.1469      0.1190
-------------------------------------------------------------------------------




  Moment of inertia tensor (10^-46 x kgm^2): 

-------------------------------------------------------------------------------
                x           y           z           Principal axis system
-------------------------------------------------------------------------------
       x        134.16      -23.01        9.50          109.951778
       y        -23.01      182.16       19.79          141.539078
       z          9.50       19.79      130.17          195.005571
-------------------------------------------------------------------------------
  Centre of mass (Ang) =     1.209880     2.280527     1.141060
-------------------------------------------------------------------------------


  Vibrational Frequency Calculation : 

--------------------------------------------------------------------------------

  Frequencies (cm-1) and Eigenvectors : 

  Frequency    -399.8488 -323.5779 -224.0126  -88.5831  -77.7655  -42.8057
  IR Intensity    0.0163    0.0178    0.0204    0.0034    0.0020    0.0008
     in X         0.0025    0.0110    0.0056    0.0007    0.0002    0.0005
     in Y         0.0091    0.0037    0.0126    0.0025    0.0003    0.0001
     in Z         0.0047    0.0031    0.0023    0.0003    0.0016    0.0001
  Raman Intsty    0.1342    0.4106    0.0020    0.0408    0.1657    0.1503

     1 x       0.032002  0.396626 -0.063345  0.138163 -0.007550 -0.075068
     1 y       0.473177  0.148185  0.078971 -0.326125 -0.014551  0.009281
     1 z       0.148219  0.122833 -0.005374 -0.081554  0.031793 -0.234539
     2 x       0.026684  0.106730 -0.164621 -0.057571  0.036892 -0.075108
     2 y      -0.038994  0.026504  0.296389  0.262103 -0.194917  0.013549
     2 z      -0.011984 -0.068675  0.108473  0.065288 -0.119955  0.194166
     3 x      -0.050798 -0.170810  0.136494 -0.100746 -0.101885  0.235657
     3 y      -0.093858 -0.117547 -0.249601  0.156737  0.186455 -0.042438
     3 z       0.013658  0.070004 -0.055890  0.034459  0.032620  0.048546
     4 x      -0.005347  0.056929 -0.115083 -0.130327  0.149267 -0.104595
     4 y       0.049732 -0.020051 -0.033749 -0.025043 -0.387311 -0.151144
     4 z      -0.013330  0.002379  0.240079  0.017731  0.216189  0.155949
     5 x      -0.084791  0.117568 -0.066495  0.032174  0.021426 -0.018247
     5 y       0.134253 -0.036437  0.024096 -0.370933  0.061057  0.080108
     5 z      -0.008404  0.027062 -0.008629 -0.080100 -0.067354 -0.234343
     6 x       0.024754  0.108139  0.060375  0.236581  0.053733 -0.160379
     6 y       0.171754  0.070393  0.030931 -0.311567  0.150366 -0.014752
     6 z      -0.042037 -0.008354 -0.004625 -0.090189  0.309162 -0.276139
     7 x      -0.028179  0.163147  0.026815  0.231804 -0.001627 -0.093880
     7 y       0.015425 -0.046315  0.180385  0.110211 -0.193024 -0.001640
     7 z       0.014583 -0.072496 -0.165144  0.086141 -0.497193 -0.112083
     8 x       0.015813 -0.061343  0.099510 -0.006391  0.033853  0.206576
     8 y       0.031490 -0.013844 -0.267851  0.253380  0.276815  0.132218
     8 z       0.010313 -0.032343 -0.441348 -0.055058 -0.133394  0.228245
     9 x      -0.003032  0.000243 -0.128616 -0.140696 -0.080549  0.509253
     9 y       0.000112 -0.006362  0.224177  0.212808  0.210627 -0.000258
     9 z       0.018244  0.050881  0.075674  0.053207  0.040876  0.023114
    10 x      -0.077466 -0.027295  0.246706 -0.213570 -0.190444 -0.195364
    10 y      -0.033943 -0.069284 -0.398707  0.089578  0.032084 -0.056231
    10 z      -0.005087  0.017635  0.249807  0.114785  0.215079  0.214363
    11 x      -0.003863  0.042476 -0.031567 -0.040207  0.009731 -0.090159
    11 y       0.012579  0.026056  0.051419  0.230988 -0.133736  0.026036
    11 z       0.009389  0.008756 -0.003365  0.020899 -0.069006  0.219557
    12 x       0.152712 -0.796139  0.017358  0.054648  0.091055 -0.155065
    12 y      -0.786945  0.027750  0.039441 -0.299906  0.010544  0.009029
    12 z      -0.162289 -0.141476  0.001294 -0.089096  0.051826 -0.228404


  Frequency     -24.0788   -0.0000    0.0000    0.0000   48.6839  119.9715
  IR Intensity    0.0008    0.0000    0.0000    0.0000    0.0005    0.0115
     in X         0.0001    0.0000    0.0000    0.0000    0.0004    0.0040
     in Y         0.0002    0.0000    0.0000    0.0000    0.0001    0.0073
     in Z         0.0005    0.0000    0.0000    0.0000    0.0000    0.0003
  Raman Intsty    0.0609    0.0000    0.0000    0.0000    0.1422    0.0019

     1 x       0.024397  0.262193  0.049093  0.189562  0.051808 -0.013099
     1 y      -0.005097 -0.155069 -0.141389  0.251101 -0.039875  0.162110
     1 z      -0.070397 -0.119572  0.291012  0.090020 -0.079435 -0.041575
     2 x       0.072774  0.262193  0.049093  0.189562 -0.022933  0.034521
     2 y      -0.203571 -0.155069 -0.141389  0.251101 -0.109278 -0.053300
     2 z       0.048029 -0.119572  0.291012  0.090020  0.047740  0.063226
     3 x      -0.060494  0.262193  0.049093  0.189562  0.038608  0.075633
     3 y       0.273040 -0.155069 -0.141389  0.251101  0.098380  0.079562
     3 z       0.055885 -0.119572  0.291012  0.090020  0.004682 -0.005446
     4 x       0.067150  0.220027  0.041198  0.159077 -0.179314 -0.086140
     4 y      -0.019073 -0.130131 -0.118651  0.210719  0.041720  0.066168
     4 z      -0.033719 -0.100343  0.244212  0.075543 -0.232487 -0.144081
     5 x       0.138672  0.220027  0.041198  0.159077 -0.176756 -0.171527
     5 y       0.112572 -0.130131 -0.118651  0.210719 -0.160431 -0.154651
     5 z       0.085633 -0.100343  0.244212  0.075543 -0.527989  0.166883
     6 x      -0.230574  0.220027  0.041198  0.159077  0.134005  0.264588
     6 y      -0.145641 -0.130131 -0.118651  0.210719  0.256388 -0.034523
     6 z      -0.397946 -0.100343  0.244212  0.075543  0.447478 -0.190590
     7 x      -0.056357  0.220027  0.041198  0.159077  0.006777 -0.008830
     7 y      -0.118753 -0.130131 -0.118651  0.210719 -0.078857  0.022612
     7 z       0.154278 -0.100343  0.244212  0.075543  0.193329 -0.249321
     8 x      -0.182675  0.220027  0.041198  0.159077 -0.078976  0.115725
     8 y      -0.147818 -0.130131 -0.118651  0.210719 -0.160402  0.155710
     8 z      -0.040484 -0.100343  0.244212  0.075543  0.035843 -0.075628
     9 x      -0.077491  0.220027  0.041198  0.159077  0.111019 -0.261811
     9 y       0.541498 -0.130131 -0.118651  0.210719  0.250181 -0.124474
     9 z       0.125243 -0.100343  0.244212  0.075543  0.038096 -0.024940
    10 x       0.221835  0.220027  0.041198  0.159077  0.222665  0.123521
    10 y       0.040278 -0.130131 -0.118651  0.210719  0.021233  0.096101
    10 z       0.150808 -0.100343  0.244212  0.075543 -0.003292 -0.064502
    11 x       0.109428  0.220027  0.041198  0.159077 -0.074468 -0.090808
    11 y      -0.271466 -0.130131 -0.118651  0.210719 -0.086184 -0.338609
    11 z       0.006399 -0.100343  0.244212  0.075543  0.170388  0.614679
    12 x      -0.033694  0.220027  0.041198  0.159077 -0.045369 -0.000371
    12 y      -0.068307 -0.130131 -0.118651  0.210719 -0.023145  0.087195
    12 z      -0.090151 -0.100343  0.244212  0.075543 -0.089176 -0.051808


  Frequency     125.4002  148.4518  173.0915  194.3318  198.2439  215.9025
  IR Intensity    0.0093    0.0110    0.0264    0.0601    0.0162    0.0127
     in X         0.0062    0.0084    0.0067    0.0106    0.0096    0.0021
     in Y         0.0001    0.0025    0.0022    0.0440    0.0062    0.0088
     in Z         0.0030    0.0000    0.0175    0.0054    0.0005    0.0017
  Raman Intsty    0.2983    0.1269    0.2290    0.0522    0.0552    0.3532

     1 x      -0.076836 -0.064132  0.076936  0.053149  0.120251 -0.128768
     1 y       0.103673  0.002862 -0.163032  0.091155  0.228067 -0.146490
     1 z       0.123280 -0.032278  0.045785  0.005579 -0.003698 -0.359160
     2 x      -0.060344 -0.065132 -0.042017 -0.051003  0.030789 -0.054523
     2 y      -0.056950  0.160804  0.136940 -0.021041 -0.301923 -0.065330
     2 z      -0.170416  0.056719 -0.119482  0.103147  0.091968  0.221007
     3 x      -0.077833 -0.012702 -0.194507 -0.201287  0.080485  0.122419
     3 y      -0.013988 -0.066634 -0.114694  0.410637 -0.097928  0.095294
     3 z      -0.009360 -0.039403 -0.193479 -0.016571 -0.238093 -0.042016
     4 x      -0.061969 -0.035150  0.054661 -0.011200  0.055443 -0.125720
     4 y       0.011352  0.215131  0.049796 -0.065968 -0.025038  0.011482
     4 z      -0.123488  0.046918 -0.003393  0.235729  0.064343 -0.078417
     5 x      -0.257062 -0.081677  0.350169 -0.026785 -0.042129  0.317033
     5 y      -0.287619 -0.065161  0.232656  0.013679  0.005939  0.172478
     5 z       0.422372  0.023884  0.072056 -0.078492 -0.027015  0.438661
     6 x       0.226750  0.134659 -0.158947  0.189809  0.342624  0.287296
     6 y      -0.079235  0.024564 -0.004808 -0.012309  0.051668  0.126664
     6 z      -0.020200  0.096246  0.162206 -0.093131 -0.155576  0.273464
     7 x      -0.066506 -0.029664  0.120784  0.019694 -0.050236 -0.144118
     7 y      -0.044507  0.218159  0.043393  0.030682 -0.175096  0.010769
     7 z      -0.170617  0.141314  0.074630  0.112343  0.358080 -0.077436
     8 x      -0.089078  0.044782 -0.128675 -0.349435  0.021322 -0.068715
     8 y      -0.083707  0.128889 -0.024689 -0.116308 -0.058761 -0.177188
     8 z       0.008029 -0.025045 -0.221727 -0.289332 -0.031672  0.086266
     9 x       0.570354  0.134299  0.261329  0.254390 -0.157914 -0.071940
     9 y       0.299726  0.052679  0.150320 -0.442080  0.181531 -0.011597
     9 z       0.013178 -0.021223 -0.154493 -0.254225 -0.138865 -0.051103
    10 x       0.044997 -0.296034 -0.221447  0.118212 -0.460067 -0.034219
    10 y       0.010962 -0.032100 -0.082092  0.050755 -0.183953  0.035661
    10 z      -0.066271  0.041446 -0.181569  0.274905  0.066121  0.026469
    11 x      -0.127643  0.355413 -0.184922 -0.005152 -0.094375  0.003838
    11 y       0.103616 -0.683770 -0.136200 -0.032600  0.145395  0.086524
    11 z      -0.099718 -0.261547  0.488555 -0.003824  0.016370 -0.058584
    12 x       0.016375 -0.057456  0.097219  0.047771  0.109441 -0.090918
    12 y       0.030406  0.025981 -0.060611  0.001268  0.263019 -0.115937
    12 z       0.104038 -0.024164  0.082111 -0.013790  0.026751 -0.344624


  Frequency     234.0216  254.0765  273.1387  292.0602  311.2474  358.1212
  IR Intensity    0.0069    0.0187    0.0135    0.0506    0.1867    0.0096
     in X         0.0058    0.0122    0.0119    0.0085    0.0010    0.0036
     in Y         0.0011    0.0005    0.0011    0.0420    0.0127    0.0034
     in Z         0.0000    0.0060    0.0004    0.0001    0.1729    0.0026
  Raman Intsty    0.0012    0.8008    0.0030    1.4061    3.3523    0.0000

     1 x      -0.075525 -0.059496 -0.037101  0.304558  0.011195 -0.080401
     1 y       0.011495 -0.035828  0.005082  0.143846  0.002425  0.040544
     1 z       0.036642  0.154625  0.001865  0.098393  0.106544  0.001860
     2 x      -0.057809 -0.104538 -0.190221 -0.234889  0.086012  0.084283
     2 y       0.122816 -0.077083 -0.045809  0.184088 -0.167285  0.074324
     2 z      -0.008878 -0.103141 -0.005354  0.001417  0.629341 -0.160917
     3 x      -0.056985 -0.061485 -0.026103  0.102486 -0.075135  0.135019
     3 y      -0.090467 -0.035217 -0.058624  0.045417 -0.071890  0.012649
     3 z       0.006212  0.174217 -0.061329 -0.095906  0.009374  0.194751
     4 x       0.124332 -0.248229 -0.128512 -0.513801 -0.265458 -0.085124
     4 y      -0.097533  0.179453 -0.284612 -0.231527  0.072330 -0.474405
     4 z       0.346588 -0.391449  0.262743 -0.034089 -0.013924 -0.171038
     5 x       0.004098  0.189587  0.052642  0.150276 -0.017341 -0.086059
     5 y       0.209611  0.448526  0.113308 -0.037755  0.052713  0.110278
     5 z      -0.269746 -0.175504  0.073463  0.097729 -0.077637  0.041998
     6 x       0.400672  0.321416  0.140534 -0.118471 -0.076940  0.024774
     6 y      -0.199577 -0.271185 -0.036444  0.171368 -0.059433  0.018441
     6 z      -0.099245 -0.060758  0.020584 -0.094305 -0.021322 -0.026461
     7 x      -0.035615 -0.022108 -0.119563  0.319546  0.065270  0.043131
     7 y       0.124896 -0.105140 -0.098165 -0.176080 -0.144063  0.161273
     7 z      -0.196700 -0.074732  0.374113 -0.082458 -0.217211  0.210064
     8 x      -0.232784  0.084745  0.213807 -0.065533 -0.051442  0.155249
     8 y      -0.286030  0.119999  0.441987 -0.110002  0.037894 -0.314207
     8 z       0.365470 -0.046376 -0.132293  0.286577 -0.297565 -0.331705
     9 x      -0.053517  0.058315  0.044141 -0.066069  0.095804  0.029127
     9 y       0.118904 -0.076472  0.048639 -0.011905  0.052381 -0.063208
     9 z       0.057323  0.162685 -0.046952 -0.104907  0.021997  0.255672
    10 x       0.018429  0.012515  0.380907 -0.007515 -0.081608 -0.254471
    10 y       0.162444 -0.099807  0.047588  0.055691  0.123935  0.402129
    10 z      -0.330166  0.252482 -0.323510  0.004421 -0.357713 -0.063305
    11 x      -0.004274 -0.125764 -0.160007 -0.077690  0.304377  0.051914
    11 y      -0.075064 -0.038592 -0.078839 -0.189354  0.134685 -0.012856
    11 z       0.033336 -0.113668 -0.114458 -0.143505 -0.034087  0.041731
    12 x       0.005450 -0.001742 -0.121957  0.174109  0.001036 -0.044061
    12 y      -0.009897  0.019734 -0.035071  0.084665  0.011678  0.020602
    12 z       0.052650  0.178365 -0.036451  0.065885  0.109384  0.000510


  Frequency     372.3658  452.8015  492.7564  527.8447  584.9545  618.7757
  IR Intensity    0.0024    0.0474    0.0032    0.0084    0.0434    0.0340
     in X         0.0000    0.0001    0.0003    0.0072    0.0006    0.0309
     in Y         0.0014    0.0442    0.0022    0.0002    0.0021    0.0006
     in Z         0.0009    0.0031    0.0007    0.0010    0.0408    0.0025
  Raman Intsty    0.0388    0.4326    3.0468    0.1922    0.1907    0.1102

     1 x       0.130134  0.010616 -0.041581 -0.150288 -0.033693 -0.149694
     1 y      -0.018502  0.019015  0.005351 -0.096760 -0.059913 -0.209630
     1 z       0.033238 -0.015958  0.178747 -0.180545 -0.105783 -0.002928
     2 x      -0.239714 -0.004636  0.018452 -0.060782  0.184069 -0.063645
     2 y      -0.077830  0.528240  0.011048  0.089839 -0.204125  0.063373
     2 z      -0.037665 -0.082190  0.004148  0.047946 -0.456903  0.103957
     3 x       0.201188 -0.008512  0.135279  0.028333 -0.106161 -0.393350
     3 y       0.071077 -0.025774  0.134558 -0.028102  0.101768  0.244662
     3 z       0.094777 -0.003611 -0.156898  0.024930  0.020870  0.125451
     4 x       0.101058  0.049889 -0.019386  0.206483 -0.492872  0.089879
     4 y       0.465982 -0.013991  0.004728  0.071834  0.224943 -0.010893
     4 z       0.293898 -0.044204  0.005777 -0.000399  0.397141 -0.046396
     5 x       0.119016 -0.009213 -0.264023 -0.422367 -0.067784  0.011231
     5 y      -0.131836 -0.018920  0.217396  0.295754  0.069628 -0.004333
     5 z      -0.042661 -0.009148  0.046905  0.124460  0.040571 -0.006881
     6 x      -0.050099  0.069228 -0.095310  0.031225 -0.001481  0.127068
     6 y      -0.003568 -0.001503 -0.403371  0.052249 -0.004253  0.402799
     6 z       0.010707 -0.008698  0.227275 -0.009179  0.017888 -0.245305
     7 x      -0.026100 -0.392371  0.108153  0.605497  0.073368  0.078148
     7 y      -0.257796 -0.646056 -0.048011 -0.323203 -0.040022 -0.048143
     7 z      -0.071861  0.051690 -0.003454  0.074360  0.028550 -0.002617
     8 x       0.222273 -0.037964  0.297067 -0.155071  0.106911  0.497147
     8 y      -0.203265 -0.014427 -0.157683  0.079332 -0.057919 -0.225188
     8 z      -0.213163 -0.035329  0.075793 -0.013477  0.016859  0.088911
     9 x       0.006416  0.000791 -0.061546  0.022619  0.003673  0.003688
     9 y      -0.033010 -0.021726  0.128738 -0.045920 -0.028848  0.030196
     9 z       0.124652 -0.000788 -0.558091  0.186384  0.137533 -0.151916
    10 x      -0.104557 -0.016602  0.014378 -0.004092 -0.030788 -0.021472
    10 y       0.346661  0.041929  0.148783 -0.075439 -0.120459 -0.167495
    10 z      -0.049537  0.038489  0.134925 -0.047897 -0.065924 -0.108707
    11 x      -0.351374  0.315070  0.083778 -0.075790  0.321276  0.000635
    11 y      -0.103839  0.059155  0.025114 -0.035548  0.126170 -0.004474
    11 z      -0.122598  0.135445  0.030049 -0.026489  0.156925 -0.008249
    12 x      -0.025797  0.024188 -0.196753  0.009252  0.035009 -0.063370
    12 y      -0.049235 -0.005878 -0.095579  0.022676  0.024126 -0.089734
    12 z      -0.037103 -0.006197  0.009841 -0.159461 -0.083894  0.211277


  Frequency     627.6440  740.1205  764.4871  828.1527  906.6203 1045.8686
  IR Intensity    0.0482    0.0091    0.0164    0.0085    0.0039    0.0003
     in X         0.0037    0.0089    0.0152    0.0050    0.0001    0.0003
     in Y         0.0405    0.0000    0.0010    0.0002    0.0000    0.0000
     in Z         0.0040    0.0002    0.0003    0.0033    0.0038    0.0000
  Raman Intsty    0.3417    0.1082    0.0034    0.3093    1.8150    0.2997

     1 x       0.168727 -0.017736  0.573157  0.213206 -0.193797  0.193259
     1 y       0.192329 -0.273994 -0.340996 -0.123633  0.001194  0.249219
     1 z       0.037916  0.165733 -0.057719  0.087271  0.001151 -0.685225
     2 x      -0.018504  0.046835  0.229017 -0.658663  0.322709 -0.087537
     2 y       0.118988  0.000340  0.050684 -0.200550  0.094383 -0.025977
     2 z       0.073402 -0.108653  0.086680 -0.059584  0.075004 -0.014879
     3 x       0.038420  0.597464 -0.131984  0.053701  0.055298 -0.004625
     3 y       0.501047  0.210299 -0.086119  0.086919  0.159243 -0.022883
     3 z       0.050654  0.158261 -0.065216 -0.334373 -0.695464  0.141424
     4 x       0.057817 -0.052113 -0.074608  0.167759 -0.067334  0.020084
     4 y      -0.073588  0.018354  0.017871 -0.025783  0.002543  0.003452
     4 z      -0.063942  0.024663  0.024486 -0.092633  0.031181  0.006328
     5 x      -0.036293 -0.069818 -0.404821 -0.094431  0.050335 -0.037976
     5 y       0.010984  0.066160  0.283138  0.076993 -0.032233  0.015255
     5 z       0.004456  0.009729  0.103720  0.029406 -0.014293  0.029600
     6 x      -0.092572  0.062222 -0.003703  0.004007  0.013634 -0.042706
     6 y      -0.312256  0.229508  0.090941  0.050071  0.013137 -0.136304
     6 z       0.183637 -0.144165 -0.046709 -0.031473 -0.006106  0.100213
     7 x      -0.104832 -0.081771 -0.313306 -0.042218  0.020858  0.015710
     7 y       0.021422  0.020677  0.102188  0.117931 -0.049225  0.001759
     7 z      -0.015782 -0.014387 -0.045939 -0.026001 -0.001443  0.006932
     8 x       0.120212 -0.282826  0.043211  0.037640  0.048805 -0.008369
     8 y      -0.080063  0.105615 -0.018598  0.002395 -0.020683  0.001183
     8 z       0.014100 -0.085128  0.010658  0.024765  0.046270 -0.005668
     9 x       0.016464 -0.028235  0.004177  0.018083  0.025662 -0.005869
     9 y      -0.077265  0.034900 -0.009036 -0.060052 -0.086171  0.009106
     9 z       0.236057 -0.162047  0.050206  0.235464  0.357052 -0.046264
    10 x      -0.128786 -0.095526  0.019617  0.026779  0.025710 -0.000658
    10 y      -0.475406 -0.209345  0.065866  0.042050  0.058900 -0.006819
    10 z      -0.345129 -0.168873  0.052281  0.030862  0.090675 -0.016824
    11 x      -0.104806 -0.005372 -0.195344  0.384219 -0.146391  0.025570
    11 y      -0.048721  0.000378 -0.065123  0.134253 -0.050581  0.008873
    11 z      -0.047708  0.005483 -0.076838  0.147653 -0.054314  0.009271
    12 x       0.048001 -0.193198  0.126153 -0.035005 -0.190791 -0.086257
    12 y       0.066850 -0.190751 -0.018679 -0.055126 -0.139339 -0.135259
    12 z      -0.158702  0.278116 -0.028663  0.047415  0.288971  0.582158




--------------------------------------------------------------------------------
  Vibrational properties (for cluster):  Temperature  =       0.000 K
--------------------------------------------------------------------------------
  Zero point energy            =        0.676285 eV
--------------------------------------------------------------------------------

  Phonon density of states : 

--------------------------------------------------------------------------------
 Frequency (cm-1) Density of States                                             
--------------------------------------------------------------------------------
    0.00000 |************************************************************  0.071
   16.34170 |                                                              0.000
   32.68340 |******************************                                0.036
   49.02510 |                                                              0.000
   65.36679 |                                                              0.000
   81.70849 |                                                              0.000
   98.05019 |                                                              0.000
  114.39189 |************************************************************  0.071
  130.73359 |                                                              0.000
  147.07529 |******************************                                0.036
  163.41699 |******************************                                0.036
  179.75868 |******************************                                0.036
  196.10038 |******************************                                0.036
  212.44208 |******************************                                0.036
  228.78378 |******************************                                0.036
  245.12548 |******************************                                0.036
  261.46718 |******************************                                0.036
  277.80888 |******************************                                0.036
  294.15057 |                                                              0.000
  310.49227 |******************************                                0.036
  326.83397 |                                                              0.000
  343.17567 |******************************                                0.036
  359.51737 |******************************                                0.036
  375.85907 |                                                              0.000
  392.20077 |                                                              0.000
  408.54246 |                                                              0.000
  424.88416 |                                                              0.000
  441.22586 |******************************                                0.036
  457.56756 |                                                              0.000
  473.90926 |                                                              0.000
  490.25096 |******************************                                0.036
  506.59265 |                                                              0.000
  522.93435 |******************************                                0.036
  539.27605 |                                                              0.000
  555.61775 |                                                              0.000
  571.95945 |******************************                                0.036
  588.30115 |                                                              0.000
  604.64285 |******************************                                0.036
  620.98454 |******************************                                0.036
  637.32624 |                                                              0.000
  653.66794 |                                                              0.000
  670.00964 |                                                              0.000
  686.35134 |                                                              0.000
  702.69304 |                                                              0.000
  719.03474 |                                                              0.000
  735.37643 |******************************                                0.036
  751.71813 |******************************                                0.036
  768.05983 |                                                              0.000
  784.40153 |                                                              0.000
  800.74323 |                                                              0.000
  817.08493 |******************************                                0.036
  833.42663 |                                                              0.000
  849.76832 |                                                              0.000
  866.11002 |                                                              0.000
  882.45172 |                                                              0.000
  898.79342 |******************************                                0.036
  915.13512 |                                                              0.000
  931.47682 |                                                              0.000
  947.81852 |                                                              0.000
  964.16021 |                                                              0.000
  980.50191 |                                                              0.000
  996.84361 |                                                              0.000
 1013.18531 |                                                              0.000
 1029.52701 |******************************                                0.036
--------------------------------------------------------------------------------



  Time to end of optimisation =       0.0312 seconds


  Peak dynamic memory used =       0.65 MB 


  Timing analysis for GULP :

--------------------------------------------------------------------------------
  Task / Subroutine                                          Time (Seconds)
--------------------------------------------------------------------------------
  Calculation of real space energy and derivatives                0.0019
  Calculation of phonons                                          0.0016
  Calculation and manipulation of Hessian matrix                  0.0010
--------------------------------------------------------------------------------
  Total CPU time                                                  0.0312
--------------------------------------------------------------------------------


  Job Finished at 14:39.53 25th May        2022                               

