------------------------------------------------------------
          Invoking FHI-aims ...

          When using FHI-aims, please cite the following reference:

            Volker Blum, Ralf Gehrke, Felix Hanke, Paula Havu,
            Ville Havu, Xinguo Ren, Karsten Reuter, and Matthias Scheffler,
            'Ab Initio Molecular Simulations with Numeric Atom-Centered Orbitals',
            Computer Physics Communications 180, 2175-2196 (2009)

          In addition, many other developments in FHI-aims are likely important for
          your particular application. A partial list of references is given at the end of
          this file. Thank you for giving credit to the authors of these developments.

          For any questions about FHI-aims, please visit our slack channel at

            https://fhi-aims.slack.com

          and our main development and support site at

            https://aims-git.rz-berlin.mpg.de .

          The latter site, in particular, has a wiki to collect information, as well
          as an issue tracker to log discussions, suggest improvements, and report issues
          or bugs. https://aims-git.rz-berlin.mpg.de is also the main development site
          of the project and all new and updated code versions can be obtained there.
          Please send an email to aims-coordinators@fhi-berlin.mpg.de and we will add
          you to these sites. They are for you and everyone is welcome there.

------------------------------------------------------------



  Date     :  20220517, Time     :  121759.131
  Time zero on CPU 1             :   0.421690000000000E-01  s.
  Internal wall clock time zero  :           422021879.131  s.

  FHI-aims created a unique identifier for this run for later identification
  aims_uuid : 9B48FCC8-44D6-4FC3-A49D-6A0F2FE6BF6F

  Build configuration of the current instance of FHI-aims
  -------------------------------------------------------
  FHI-aims version      : 210914
  Commit number         : GITDIR-NOTFOUND
  CMake host system     : Linux-3.10.0-693.17.1.el7.x86_64
  CMake version         : 3.21.1
  Fortran compiler      : /shared/ucl/apps/intel/2018.Update3/impi/2018.3.222/intel64/bin/mpiifort (Intel) version 18.0.3.20180410
  Fortran compiler flags: -O3 -ip -fp-model precise
  C compiler            : /shared/ucl/apps/intel/2018.Update3/compilers_and_libraries_2018.3.222/linux/bin/intel64/icc (Intel) version 18.0.3.20180410
  C compiler flags      : -O3 -ip -fp-model precise -std=gnu99
  ELPA2 kernel          : AVX2
  Using MPI
  Using ScaLAPACK
  Using LibXC
  Using i-PI
  Using RLSY
  Linking against: /shared/ucl/apps/intel/2019.Update5/compilers_and_libraries_2019.5.281/linux/mkl/lib/intel64/libmkl_intel_lp64.so
                   /shared/ucl/apps/intel/2019.Update5/compilers_and_libraries_2019.5.281/linux/mkl/lib/intel64/libmkl_sequential.so
                   /shared/ucl/apps/intel/2019.Update5/compilers_and_libraries_2019.5.281/linux/mkl/lib/intel64/libmkl_core.so
                   /shared/ucl/apps/intel/2019.Update5/compilers_and_libraries_2019.5.281/linux/mkl/lib/intel64/libmkl_blacs_intelmpi_lp64.so
                   /shared/ucl/apps/intel/2019.Update5/compilers_and_libraries_2019.5.281/linux/mkl/lib/intel64/libmkl_scalapack_lp64.so

  Using       24 parallel tasks.
  Task        0 on host node-k98e-003 reporting.
  Task        1 on host node-k98e-003 reporting.
  Task        2 on host node-k98e-003 reporting.
  Task        3 on host node-k98e-003 reporting.
  Task        4 on host node-k98e-003 reporting.
  Task        5 on host node-k98e-003 reporting.
  Task        6 on host node-k98e-003 reporting.
  Task        7 on host node-k98e-003 reporting.
  Task        8 on host node-k98e-003 reporting.
  Task        9 on host node-k98e-003 reporting.
  Task       10 on host node-k98e-003 reporting.
  Task       11 on host node-k98e-003 reporting.
  Task       12 on host node-k98e-003 reporting.
  Task       13 on host node-k98e-003 reporting.
  Task       14 on host node-k98e-003 reporting.
  Task       15 on host node-k98e-003 reporting.
  Task       16 on host node-k98e-003 reporting.
  Task       17 on host node-k98e-003 reporting.
  Task       18 on host node-k98e-003 reporting.
  Task       19 on host node-k98e-003 reporting.
  Task       20 on host node-k98e-003 reporting.
  Task       21 on host node-k98e-003 reporting.
  Task       22 on host node-k98e-003 reporting.
  Task       23 on host node-k98e-003 reporting.

  Performing system and environment tests:
  | Environment variable OMP_NUM_THREADS correctly set to 1.
  | Checking for ScaLAPACK...
  | Testing pdtran()...
  | All pdtran() tests passed.

  Obtaining array dimensions for all initial allocations:
  
  -----------------------------------------------------------------------
  Parsing control.in (first pass over file, find array dimensions only).
  The contents of control.in will be repeated verbatim below
  unless switched off by setting 'verbatim_writeout .false.' .
  in the first line of control.in .
  -----------------------------------------------------------------------
  
  #########################################################################################  Physical model
  #########################################################################################
  xc                 pbesol
  spin               none
  relativistic       atomic_zora scalar
  charge             0.0
  #  SCF convergence
  occupation_type    gaussian 0.01
  mixer              pulay
  n_max_pulay        10
  charge_mix_param   0.5
  sc_accuracy_rho    1E-5
  sc_accuracy_eev    1E-3
  sc_accuracy_etot   1E-6
  sc_accuracy_forces 1E-4
  sc_iter_limit      1500
  #  Relaxation
  #relax_geometry   bfgs 1.e-3
  
  ################################################################################
  #
  #  FHI-aims code project
  #  VB, Fritz-Haber Institut, 2009
  #
  #  Suggested "light" defaults for Al atom (to be pasted into control.in file)
  #  Be sure to double-check any results obtained with these settings for post-processing,
  #  e.g., with the "tight" defaults and larger basis sets.
  #
  ################################################################################
    species        Al
  #     global species definitions
      nucleus             13
      mass                26.9815386
  #
      l_hartree           4
  #
      cut_pot             3.5          1.5  1.0
      basis_dep_cutoff    1e-4
  #
      radial_base         41 5.0
      radial_multiplier   1
      angular_grids       specified
        division   0.6594  110
        division   0.8170  194
        division   0.9059  302
  #      division   1.0363  434
  #      division   1.1443  590
  #      division   1.2621  770
  #      division   2.8177  974
  #      outer_grid   974
        outer_grid   302
  ################################################################################
  #
  #  Definition of "minimal" basis
  #
  ################################################################################
  #     valence basis states
      valence      3  s   2.
      valence      3  p   1.
  #     ion occupancy
      ion_occ      3  s   1.
      ion_occ      2  p   6.
  ################################################################################
  #
  #  Suggested additional basis functions. For production calculations,
  #  uncomment them one after another (the most important basis functions are
  #  listed first).
  #
  #  Constructed for dimers: 2.0 A, 2.5 A, 3.0 A, 3.75 A, 4.5 A
  #
  ################################################################################
  #  "First tier" - improvements: -199.47 meV to -10.63 meV
       ionic 3 d auto
       ionic 3 p auto
  #     hydro 4 f 4.7
       ionic 3 s auto
  #  "Second tier" - improvements: -5.35 meV to -1.57 meV
  #     hydro 5 g 7
  #     hydro 3 d 6
  #     hydro 2 s 11.6
  #     hydro 2 p 0.9
  #  "Third tier" - improvements: -0.63 meV to -0.20 meV
  #     hydro 5 f 7.6
  #     hydro 4 p 7.2
  #     hydro 4 s 3.7
  #     hydro 4 d 7.6
  #  "Fourth tier" - improvements: -0.17 meV to -0.08 meV
  #     hydro 4 d 13.6
  #     hydro 5 g 11.2
  #     hydro 4 d 0.9
  #     hydro 1 s 0.4
  #     hydro 4 p 0.1
  #     hydro 5 f 9.8
  #  Further basis functions that fell out of the optimization - noise level...
  #     hydro 4 p 5
  
  ################################################################################
  #
  #  FHI-aims code project
  #  VB, Fritz-Haber Institut, 2009
  #
  #  Suggested "light" defaults for F atom (to be pasted into control.in file)
  #  Be sure to double-check any results obtained with these settings for post-processing,
  #  e.g., with the "tight" defaults and larger basis sets.
  #
  ################################################################################
    species        F
  #     global species definitions
      nucleus             9
      mass                18.9984032
  #
      l_hartree           4
  #
      cut_pot             3.5  1.5  1.0
      basis_dep_cutoff    1e-4
  #
      radial_base         37 5.0
      radial_multiplier   1
      angular_grids specified
        division   0.4014  110
        division   0.5291  194
        division   0.6019  302
  #      division   0.6814  434
  #      division   0.7989  590
  #      division   0.8965  770
  #      division   1.3427  974
  #      outer_grid   974
        outer_grid   302
  ################################################################################
  #
  #  Definition of "minimal" basis
  #
  ################################################################################
  #     valence basis states
      valence      2  s   2.
      valence      2  p   5.
  #     ion occupancy
      ion_occ      2  s   1.
      ion_occ      2  p   4.
  ################################################################################
  #
  #  Suggested additional basis functions. For production calculations,
  #  uncomment them one after another (the most important basis functions are
  #  listed first).
  #
  #  Constructed for dimers: 1.2 A, 1.418 A, 1.75 A, 2.25 A, 3.25 A
  #
  ################################################################################
  #  "First tier" - improvements: -149.44 meV to -45.88 meV
       hydro 2 p 1.7
       hydro 3 d 7.4
       hydro 3 s 6.8
  #  "Second tier" - improvements: -12.96 meV to -1.56 meV
  #     hydro 4 f 11.2
  #     ionic 2 p auto
  #     hydro 1 s 0.75
  #     hydro 4 d 8.8
  #     hydro 5 g 16.8
  #  "Third tier" - improvements: -0.58 meV to -0.05 meV
  #     hydro 3 p 6.2
  #     hydro 3 s 3.2
  #     hydro 4 f 9.6
  #     hydro 3 s 19.6
  #     hydro 4 d 8.6
  #     hydro 5 g 14.4
  # Further basis functions: -0.05 meV and below
  #     hydro 3 p 4.2
  
  -----------------------------------------------------------------------
  Completed first pass over input file control.in .
  -----------------------------------------------------------------------
  
  
  -----------------------------------------------------------------------
  Parsing geometry.in (first pass over file, find array dimensions only).
  The contents of geometry.in will be repeated verbatim below
  unless switched off by setting 'verbatim_writeout .false.' .
  in the first line of geometry.in .
  -----------------------------------------------------------------------
  
  atom -1.714334189 2.569644685 -1.240790006 Al
  atom -0.523281370 -0.008106996 -2.334800156 Al
  atom -2.186206986 -0.346454312 -0.510057049 Al
  atom -0.872699680 3.845351911 -0.237246973 F
  atom -3.049377170 3.073117266 -2.364087519 F
  atom -1.480398688 -1.669394237 -1.813610554 F
  atom -2.398385680 1.448599110 0.121918385 F
  atom -3.273600530 -1.284844146 0.590815764 F
  atom 0.603831890 -0.495922060 -3.663924800 F
  atom -0.254120693 1.884882322 -2.231002122 F
  atom -2.427743357 0.553302551 -2.264808828 F
  atom -0.255184363 -0.002277220 -0.387927588 F
  
  -----------------------------------------------------------------------
  Completed first pass over input file geometry.in .
  -----------------------------------------------------------------------
  

  Basic array size parameters:
  | Number of species                 :        2
  | Number of atoms                   :       12
  | Max. basis fn. angular momentum   :        2
  | Max. atomic/ionic basis occupied n:        3
  | Max. number of basis fn. types    :        3
  | Max. radial fns per species/type  :        5
  | Max. logarithmic grid size        :     1340
  | Max. radial integration grid size :       41
  | Max. angular integration grid size:      302
  | Max. angular grid division number :        8
  | Radial grid for Hartree potential :     1340
  | Number of spin channels           :        1

------------------------------------------------------------
          Reading file control.in.
------------------------------------------------------------
  XC: Using PBEsol gradient-corrected functionals.
  Spin treatment: No spin polarisation.
  Scalar relativistic treatment of kinetic energy: on-site free-atom approximation to ZORA.
  Charge =   0.000000E+00: Neutral system requested explicitly.
  Occupation type: Gaussian broadening, width =   0.100000E-01 eV.
  Using pulay charge density mixing.
  Pulay mixing - number of memorized iterations:   10
  Charge density mixing - mixing parameter:     0.5000
  Convergence accuracy of self-consistent charge density:  0.1000E-04
  Convergence accuracy of sum of eigenvalues:  0.1000E-02
  Convergence accuracy of total energy:  0.1000E-05
  Convergence accuracy of forces:  0.1000E-03
  Maximum number of s.-c. iterations  :  1500
 
  Reading configuration options for species Al                  .
  | Found nuclear charge :  13.0000
  | Found atomic mass :    26.9815386000000      amu
  | Found l_max for Hartree potential  :   4
  | Found cutoff potl. onset [A], width [A], scale factor :    3.50000    1.50000    1.00000
  | Threshold for basis-dependent cutoff potential is   0.100000E-03
  | Found data for basic radial integration grid :    41 points, outermost radius =    5.000 A
  | Found multiplier for basic radial grid :   1
  | Found angular grid specification: user-specified.
  | Specified grid contains     4 separate shells.
  | Check grid settings after all constraints further below.
  | Found free-atom valence shell :  3 s   2.000
  | Found free-atom valence shell :  3 p   1.000
  | Found free-ion valence shell :  3 s   1.000
  | Found free-ion valence shell :  2 p   6.000
  | Found ionic basis function :  3 d , default cutoff radius.
  | Found ionic basis function :  3 p , default cutoff radius.
  | Found ionic basis function :  3 s , default cutoff radius.
  Species Al                  : Missing cutoff potential type.
  Defaulting to exp(1/x)/(1-x)^2 type cutoff potential.
  Species Al: No 'logarithmic' tag. Using default grid for free atom:
  | Default logarithmic grid data [bohr] : 0.1000E-03 0.1000E+03 0.1012E+01
  | Will include ionic basis functions of  2.0-fold positive Al                   ion.
  Species Al: On-site basis accuracy parameter (for Gram-Schmidt orthonormalisation) not specified.
  Using default value basis_acc =  0.1000000E-03.
  Species Al                  : Using default innermost maximum threshold i_radial=  2 for radial functions.
  Species Al                  : Default cutoff onset for free atom density etc. : 0.35000000E+01 AA.
  Species Al                  : Basic radial grid will be enhanced according to radial_multiplier =   1, to contain    41 grid points.
 
  Reading configuration options for species F                   .
  | Found nuclear charge :   9.0000
  | Found atomic mass :    18.9984032000000      amu
  | Found l_max for Hartree potential  :   4
  | Found cutoff potl. onset [A], width [A], scale factor :    3.50000    1.50000    1.00000
  | Threshold for basis-dependent cutoff potential is   0.100000E-03
  | Found data for basic radial integration grid :    37 points, outermost radius =    5.000 A
  | Found multiplier for basic radial grid :   1
  | Found angular grid specification: user-specified.
  | Specified grid contains     4 separate shells.
  | Check grid settings after all constraints further below.
  | Found free-atom valence shell :  2 s   2.000
  | Found free-atom valence shell :  2 p   5.000
  | Found free-ion valence shell :  2 s   1.000
  | Found free-ion valence shell :  2 p   4.000
  | Found hydrogenic basis function :  2 p   1.700
  | Found hydrogenic basis function :  3 d   7.400
  | Found hydrogenic basis function :  3 s   6.800
  Species F                   : Missing cutoff potential type.
  Defaulting to exp(1/x)/(1-x)^2 type cutoff potential.
  Species F : No 'logarithmic' tag. Using default grid for free atom:
  | Default logarithmic grid data [bohr] : 0.1000E-03 0.1000E+03 0.1012E+01
  Species F : On-site basis accuracy parameter (for Gram-Schmidt orthonormalisation) not specified.
  Using default value basis_acc =  0.1000000E-03.
  Species F                   : Using default innermost maximum threshold i_radial=  2 for radial functions.
  Species F                   : Default cutoff onset for free atom density etc. : 0.35000000E+01 AA.
  Species F                   : Basic radial grid will be enhanced according to radial_multiplier =   1, to contain    37 grid points.
 
  Finished reading input file 'control.in'.
 
------------------------------------------------------------


------------------------------------------------------------
          Reading geometry description geometry.in.
------------------------------------------------------------
  | The smallest distance between any two atoms is         1.80967405 AA.
  | The first atom of this pair is atom number                      2 .
  | The second atom of this pair is atom number                     9 .
  Input structure read successfully.
  The structure contains       12 atoms,  and a total of        120.000 electrons.

  Input geometry:
  | No unit cell requested.
  | Atomic structure:
  |       Atom                x [A]            y [A]            z [A]
  |    1: Species Al           -1.71433419        2.56964469       -1.24079001
  |    2: Species Al           -0.52328137       -0.00810700       -2.33480016
  |    3: Species Al           -2.18620699       -0.34645431       -0.51005705
  |    4: Species F            -0.87269968        3.84535191       -0.23724697
  |    5: Species F            -3.04937717        3.07311727       -2.36408752
  |    6: Species F            -1.48039869       -1.66939424       -1.81361055
  |    7: Species F            -2.39838568        1.44859911        0.12191839
  |    8: Species F            -3.27360053       -1.28484415        0.59081576
  |    9: Species F             0.60383189       -0.49592206       -3.66392480
  |   10: Species F            -0.25412069        1.88488232       -2.23100212
  |   11: Species F            -2.42774336        0.55330255       -2.26480883
  |   12: Species F            -0.25518436       -0.00227722       -0.38792759

 
  Finished reading input file 'control.in'.
 

------------------------------------------------------------
          Reading geometry description geometry.in.
------------------------------------------------------------
 
  Consistency checks for stacksize environment parameter are next.
 
  | Maximum stacksize for task 0: unlimited
  | Maximum stacksize for task 1: unlimited
  | Maximum stacksize for task 2: unlimited
  | Maximum stacksize for task 3: unlimited
  | Maximum stacksize for task 4: unlimited
  | Maximum stacksize for task 5: unlimited
  | Maximum stacksize for task 6: unlimited
  | Maximum stacksize for task 7: unlimited
  | Maximum stacksize for task 8: unlimited
  | Maximum stacksize for task 9: unlimited
  | Maximum stacksize for task 10: unlimited
  | Maximum stacksize for task 11: unlimited
  | Maximum stacksize for task 12: unlimited
  | Maximum stacksize for task 13: unlimited
  | Maximum stacksize for task 14: unlimited
  | Maximum stacksize for task 15: unlimited
  | Maximum stacksize for task 16: unlimited
  | Maximum stacksize for task 17: unlimited
  | Maximum stacksize for task 18: unlimited
  | Maximum stacksize for task 19: unlimited
  | Maximum stacksize for task 20: unlimited
  | Maximum stacksize for task 21: unlimited
  | Maximum stacksize for task 22: unlimited
  | Maximum stacksize for task 23: unlimited
  | Current stacksize for task 0: unlimited
  | Current stacksize for task 1: unlimited
  | Current stacksize for task 2: unlimited
  | Current stacksize for task 3: unlimited
  | Current stacksize for task 4: unlimited
  | Current stacksize for task 5: unlimited
  | Current stacksize for task 6: unlimited
  | Current stacksize for task 7: unlimited
  | Current stacksize for task 8: unlimited
  | Current stacksize for task 9: unlimited
  | Current stacksize for task 10: unlimited
  | Current stacksize for task 11: unlimited
  | Current stacksize for task 12: unlimited
  | Current stacksize for task 13: unlimited
  | Current stacksize for task 14: unlimited
  | Current stacksize for task 15: unlimited
  | Current stacksize for task 16: unlimited
  | Current stacksize for task 17: unlimited
  | Current stacksize for task 18: unlimited
  | Current stacksize for task 19: unlimited
  | Current stacksize for task 20: unlimited
  | Current stacksize for task 21: unlimited
  | Current stacksize for task 22: unlimited
  | Current stacksize for task 23: unlimited
 
  Consistency checks for the contents of control.in are next.
 
  MPI_IN_PLACE appears to work with this MPI implementation.
  | Keeping use_mpi_in_place .true. (see manual).
  Target number of points in a grid batch is not set. Defaulting to  100
  Method for grid partitioning is not set. Defaulting to parallel hash+maxmin partitioning.
  Batch size limit is not set. Defaulting to    200
  By default, will store active basis functions for each batch.
  If in need of memory, prune_basis_once .false. can be used to disable this option.
  communication_type for Hartree potential was not specified.
  Defaulting to calc_hartree .
  Pulay mixer: Number of initial linear mixing iterations not set.
  Defaulting to    0 iterations.
  Work space size for distributed Hartree potential not set.
  Defaulting to   0.200000E+03 MB.
  Algorithm-dependent basis array size parameters:
  | n_max_pulay                         :       10
  Presetting      1001 iterations before the initial mixing cycle
  is restarted anyway using the sc_init_iter criterion / keyword.
  Presetting a factor      1.000 between actual scf density residual
  and density convergence criterion sc_accuracy_rho below which sc_init_iter
  takes no effect.
  Geometry relaxation not requested: no relaxation will be performed.
  Forces evaluation will include force correction term due to incomplete self-consistency (default).
  Handling of forces: Unphysical translation and rotation will be removed from forces.
  No accuracy limit for integral partition fn. given. Defaulting to  0.1000E-14.
  No threshold value for u(r) in integrations given. Defaulting to  0.1000E-05.
  No accuracy for occupation numbers given. Defaulting to  0.1000E-12.
  No threshold value for occupation numbers given. Defaulting to  0.0000E+00.
  No accuracy for fermi level given. Defaulting to  0.1000E-19.
  Maximum # of iterations to find E_F not set. Defaulting to  200.
  Preferred method for the eigenvalue solver ('KS_method') not specified in 'control.in'.
  Calling BLACS routine to test compilation state
  Since ScaLAPACK support is enabled, defaulting to ELPA (via ELSI).
  Will not use alltoall communication since running on < 1024 CPUs.
  Threshold for basis singularities not set.
  Default threshold for basis singularities:  0.1000E-04
  partition_type (choice of integration weights) for integrals was not specified.
  | Using a version of the partition function of Stratmann and coworkers ('stratmann_sparse').
  | At each grid point, the set of atoms used to build the partition table is smoothly restricted to
  | only those atoms whose free-atom density would be non-zero at that grid point.
  Partitioning for Hartree potential was not defined. Using partition_type for integrals.
  | Adjusted default value of keyword multip_moments_threshold to:       0.10000000E-11
  | This value may affect high angular momentum components of the Hartree potential in periodic systems.
  No q(lm)/r^(l+1) cutoff set for long-range Hartree potential.
  | Using default value of  0.100000E-09 .
  | Verify using the multipole_threshold keyword.
  Defaulting to new monopole extrapolation.
  Density update method: automatic selection selected.
  Charge integration errors on the 3D integration grid will be compensated
  by explicit normalization and distribution of residual charges.
  Use the "compensate_multipole_errors" flag to change this behaviour.
  Set 'collect_eigenvectors' to be '.true.' for use_density_matrix .false.
 
  Consistency checks for the contents of geometry.in are next.
 
  Number of empty states per atom not set in control.in - providing a guess from actual geometry.
  | Total number of empty states used during s.c.f. cycle:       36
  If you use a very high smearing, use empty_states (per atom!) in control.in to increase this value.

  Structure-dependent array size parameters: 
  | Maximum number of distinct radial functions  :       14
  | Maximum number of basis functions            :      180
  | Number of Kohn-Sham states (occupied + empty):       96
------------------------------------------------------------

------------------------------------------------------------
          Preparing all fixed parts of the calculation.
------------------------------------------------------------
  Determining machine precision:
    2.225073858507201E-308
  Setting up grids for atomic and cluster calculations.

  Creating wave function, potential, and density for free atoms.

  Species: Al

  List of occupied orbitals and eigenvalues:
    n    l              occ      energy [Ha]    energy [eV]
    1    0           2.0000       -55.621123     -1513.5278
    2    0           2.0000        -3.957030      -107.6763
    3    0           2.0000        -0.272233        -7.4078
    2    1           6.0000        -2.540949       -69.1427
    3    1           1.0000        -0.083300        -2.2667


  Species: F

  List of occupied orbitals and eigenvalues:
    n    l              occ      energy [Ha]    energy [eV]
    1    0           2.0000       -24.399611      -663.9472
    2    0           2.0000        -1.098702       -29.8972
    2    1           5.0000        -0.408210       -11.1080


  Adding cutoff potential to free-atom effective potential.
  Creating fixed part of basis set: Ionic, confined, hydrogenic.
 
  Al                   ion:

  List of free ionic orbitals and eigenvalues:
    n    l      energy [Ha]    energy [eV]
    1    0       -56.418846     -1535.2349
    2    0        -4.732717      -128.7838
    3    0        -0.872690       -23.7471
    2    1        -3.317230       -90.2664


  List of ionic basis orbitals and eigenvalues:
    n    l      energy [Ha]    energy [eV]    outer radius [A]
    3    2        -0.346815        -9.4373       4.594041
    3    1        -0.631870       -17.1940       4.538221
    3    0        -0.872657       -23.7462       4.538221

 
  F                    hydrogenic:
 
  List of hydrogenic basis orbitals: 
    n    l      effective z      eigenvalue [eV]  inner max. [A]     outer max. [A]     outer radius [A]   
    2    1         1.700000        -9.7616           1.243167           1.243167           4.598524
    3    2         7.400000       -82.7828           0.642437           0.642437           3.305741
    3    0         6.800000       -69.9026           0.057798           1.022307           3.781556
 
  Creating atomic-like basis functions for current effective potential.

  Species Al                  :

  List of atomic basis orbitals and eigenvalues:
    n    l      energy [Ha]    energy [eV]    outer radius [A]
    1    0       -55.621123     -1513.5278       0.850197
    2    0        -3.957030      -107.6763       3.144911
    3    0        -0.272233        -7.4078       4.594041
    2    1        -2.540949       -69.1427       3.731966
    3    1        -0.083300        -2.2667       4.594041


  Species F                   :

  List of atomic basis orbitals and eigenvalues:
    n    l      energy [Ha]    energy [eV]    outer radius [A]
    1    0       -24.399611      -663.9472       1.258458
    2    0        -1.098702       -29.8972       4.325857
    2    1        -0.408210       -11.1080       4.487453

  Assembling full basis from fixed parts.
  | Species Al :   atomic orbital   1 s accepted.
  | Species Al :   atomic orbital   2 s accepted.
  | Species Al :    ionic orbital   3 s accepted.
  | Species Al :   atomic orbital   3 s accepted.
  | Species Al :   atomic orbital   2 p accepted.
  | Species Al :    ionic orbital   3 p accepted.
  | Species Al :   atomic orbital   3 p accepted.
  | Species Al :    ionic orbital   3 d accepted.
  | Species F :   atomic orbital   1 s accepted.
  | Species F :    hydro orbital   3 s accepted.
  | Species F :   atomic orbital   2 s accepted.
  | Species F :   atomic orbital   2 p accepted.
  | Species F :    hydro orbital   2 p accepted.
  | Species F :    hydro orbital   3 d accepted.
 
  Basis size parameters after reduction:
  | Total number of radial functions:       14
  | Total number of basis functions :      180
 
  Per-task memory consumption for arrays in subroutine allocate_ext:
  |           4.807768MB.
  Testing on-site integration grid accuracy.
  |  Species  Function  <phi|h_atom|phi> (log., in eV)  <phi|h_atom|phi> (rad., in eV)
           1        1              -1513.5277717935              -1513.5271881332
           1        2               -107.6762691836               -107.6762662489
           1        3                 -6.9467474784                 -6.9471269649
           1        4                  5.5771951849                  5.4862107220 ***
           1        5                -69.1427313144                -69.1427312731
           1        6                 -1.5197375330                 -1.5230432022
           1        7                  6.8210948310                  6.5529872240 ***
           1        8                  4.3216540965                  4.2851170187 ***
           2        9               -663.9471986398               -663.9470363334
           2       10                 16.8514011578                 16.8512525338
           2       11                -28.4490593856                -28.4490661472
           2       12                -11.1080115307                -11.1080620173
           2       13                  7.1940182175                  7.1685154137
           2       14                 44.8544281765                 44.8543763625
 * Note: Onsite integrals marked "***" above are less accurate than
 * onsite_accuracy_threshold =    0.03000 eV. Usually, this is harmless.
 * When in doubt, tighten the "radial" and/or "radial_multiplier" flags to check.

  Preparing densities etc. for the partition functions (integrals / Hartree potential).

  Preparations completed.
  max(cpu_time)          :      0.186 s.
  Wall clock time (cpu1) :      0.186 s.
------------------------------------------------------------

------------------------------------------------------------
          Begin self-consistency loop: Initialization.

          Date     :  20220517, Time     :  121803.691
------------------------------------------------------------

  Initializing index lists of integration centers etc. from given atomic structure:
  | Number of centers in hartree potential         :        12
  | Number of centers in hartree multipole         :        12
  | Number of centers in electron density summation:        12
  | Number of centers in basis integrals           :        12
  | Number of centers in integrals                 :        12
  | Number of centers in hamiltonian               :        12
  * Using 24 tasks for Scalapack Eigenvalue solver.
  Detailed listing of tasks and assigned k-points:
  (for non-periodic systems, the "k-point" denotes an internal label only)
   Task     0 k-point     1 on node-k98e-003
   Task     1 k-point     1 on node-k98e-003
   Task     2 k-point     1 on node-k98e-003
   Task     3 k-point     1 on node-k98e-003
   Task     4 k-point     1 on node-k98e-003
   Task     5 k-point     1 on node-k98e-003
   Task     6 k-point     1 on node-k98e-003
   Task     7 k-point     1 on node-k98e-003
   Task     8 k-point     1 on node-k98e-003
   Task     9 k-point     1 on node-k98e-003
   Task    10 k-point     1 on node-k98e-003
   Task    11 k-point     1 on node-k98e-003
   Task    12 k-point     1 on node-k98e-003
   Task    13 k-point     1 on node-k98e-003
   Task    14 k-point     1 on node-k98e-003
   Task    15 k-point     1 on node-k98e-003
   Task    16 k-point     1 on node-k98e-003
   Task    17 k-point     1 on node-k98e-003
   Task    18 k-point     1 on node-k98e-003
   Task    19 k-point     1 on node-k98e-003
   Task    20 k-point     1 on node-k98e-003
   Task    21 k-point     1 on node-k98e-003
   Task    22 k-point     1 on node-k98e-003
   Task    23 k-point     1 on node-k98e-003
  Tasks:    24 split into      6 X      4 BLACS grid
  Calculating block size based on n_basis =          180  max_nprow =            6  max_npcol =            4
  ScaLAPACK block size set to:           16
  Allocating        0.012 MB for ovlp
  Allocating        0.012 MB for ham
  Allocating        0.012 MB for eigenvec
  Required Scalapack workspace - INTEGER:            1  REAL:             1
  Partitioning the integration grid into batches with parallel hashing+maxmin method.
  | Number of batches:     1064
  | Maximal batch size:     178
  | Minimal batch size:      33
  | Average batch size:      86.391
  | Standard deviation of batch sizes:      19.851

  Integration load balanced across    24 MPI tasks.
  Work distribution over tasks is as follows:
  Task     0 has       3781 integration points.
  Task     1 has       3863 integration points.
  Task     2 has       3808 integration points.
  Task     3 has       3874 integration points.
  Task     4 has       3855 integration points.
  Task     5 has       3898 integration points.
  Task     6 has       3869 integration points.
  Task     7 has       3798 integration points.
  Task     8 has       3796 integration points.
  Task     9 has       3857 integration points.
  Task    10 has       3784 integration points.
  Task    11 has       3893 integration points.
  Task    12 has       3888 integration points.
  Task    13 has       3801 integration points.
  Task    14 has       3869 integration points.
  Task    15 has       3849 integration points.
  Task    16 has       3798 integration points.
  Task    17 has       3778 integration points.
  Task    18 has       3871 integration points.
  Task    19 has       3863 integration points.
  Task    20 has       3782 integration points.
  Task    21 has       3777 integration points.
  Task    22 has       3791 integration points.
  Task    23 has       3777 integration points.
  Initializing partition tables, free-atom densities, potentials, etc. across the integration grid (initialize_grid_storage).
  | initialize_grid_storage: Actual outermost partition radius vs. multipole_radius_free
  | (-- VB: in principle, multipole_radius_free should be larger, hence this output)
  | Species        1: Confinement radius =              4.999999999999999 AA, multipole_radius_free =              5.004487022111096 AA.
  | Species        1: outer_partition_radius set to              5.004487022111096 AA .
  | Species        2: Confinement radius =              4.999999999999999 AA, multipole_radius_free =              5.009370088163274 AA.
  | Species        2: outer_partition_radius set to              5.009370088163274 AA .
  | The sparse table of interatomic distances needs          1.64 kbyte instead of         1.15 kbyte of memory.
  | Using the partition_type stratmann_smoother will reduce your memory usage.
  | Net number of integration points:    91920
  | of which are non-zero points    :    84999
  Renormalizing the initial density to the exact electron count on the 3D integration grid.
  | Initial density: Formal number of electrons (from input files) :     120.0000000000
  | Integrated number of electrons on 3D grid     :     119.9998942306
  | Charge integration error                      :      -0.0001057694
  | Normalization factor for density and gradient :       1.0000008814
  Renormalizing the free-atom superposition density to the exact electron count on the 3D integration grid.
  | Formal number of electrons (from input files) :     120.0000000000
  | Integrated number of electrons on 3D grid     :     119.9998942306
  | Charge integration error                      :      -0.0001057694
  | Normalization factor for density and gradient :       1.0000008814
  Obtaining max. number of non-zero basis functions in each batch (get_n_compute_maxes).
  | Maximal number of non-zero basis functions:      170 in task     0
  | Maximal number of non-zero basis functions:      166 in task     1
  | Maximal number of non-zero basis functions:      170 in task     2
  | Maximal number of non-zero basis functions:      171 in task     3
  | Maximal number of non-zero basis functions:      165 in task     4
  | Maximal number of non-zero basis functions:      167 in task     5
  | Maximal number of non-zero basis functions:      166 in task     6
  | Maximal number of non-zero basis functions:      170 in task     7
  | Maximal number of non-zero basis functions:      167 in task     8
  | Maximal number of non-zero basis functions:      166 in task     9
  | Maximal number of non-zero basis functions:      164 in task    10
  | Maximal number of non-zero basis functions:      171 in task    11
  | Maximal number of non-zero basis functions:      172 in task    12
  | Maximal number of non-zero basis functions:      167 in task    13
  | Maximal number of non-zero basis functions:      170 in task    14
  | Maximal number of non-zero basis functions:      172 in task    15
  | Maximal number of non-zero basis functions:      166 in task    16
  | Maximal number of non-zero basis functions:      170 in task    17
  | Maximal number of non-zero basis functions:      165 in task    18
  | Maximal number of non-zero basis functions:      168 in task    19
  | Maximal number of non-zero basis functions:      166 in task    20
  | Maximal number of non-zero basis functions:      166 in task    21
  | Maximal number of non-zero basis functions:      170 in task    22
  | Maximal number of non-zero basis functions:      165 in task    23
  Selecting the method for density update.
  Loop over occupied states selected for charge density update.
  Allocating        0.132 MB for KS_eigenvector
  Integrating Hamiltonian matrix: batch-based integration.
  Time summed over all CPUs for integration: real work        0.766 s, elapsed        0.819 s
  Integrating overlap matrix.
  Time summed over all CPUs for integration: real work        0.291 s, elapsed        0.311 s
  Deallocating overlap matrix.

  Updating Kohn-Sham eigenvalues and eigenvectors using ELSI and the ELPA eigensolver.
  Overlap matrix is not singular
  | Lowest and highest eigenvalues :  0.2177E-02,  0.5770E+01
  Finished singularity check of overlap matrix
  | Time :     0.004 s
  Starting ELPA eigensolver
  Finished Cholesky decomposition
  | Time :     0.003 s
  Finished transformation to standard eigenproblem
  | Time :     0.000 s
  Finished solving standard eigenproblem
  | Time :     0.004 s
  Finished back-transformation of eigenvectors
  | Time :     0.000 s

  Obtaining occupation numbers and chemical potential using ELSI.
  | Chemical potential (Fermi level):    -7.43631818 eV
  Writing Kohn-Sham eigenvalues.

  State    Occupation    Eigenvalue [Ha]    Eigenvalue [eV]
      1       2.00000         -55.487076        -1509.88017
      2       2.00000         -55.487076        -1509.88016
      3       2.00000         -55.483570        -1509.78476
      4       2.00000         -24.361630         -662.91368
      5       2.00000         -24.361630         -662.91368
      6       2.00000         -24.355119         -662.73649
      7       2.00000         -24.351784         -662.64575
      8       2.00000         -24.348168         -662.54737
      9       2.00000         -24.341317         -662.36093
     10       2.00000         -24.341317         -662.36093
     11       2.00000         -24.340619         -662.34194
     12       2.00000         -24.339162         -662.30230
     13       2.00000          -3.952833         -107.56205
     14       2.00000          -3.952695         -107.55830
     15       2.00000          -3.948699         -107.44956
     16       2.00000          -2.547144          -69.31131
     17       2.00000          -2.545954          -69.27892
     18       2.00000          -2.544298          -69.23388
     19       2.00000          -2.544121          -69.22906
     20       2.00000          -2.543121          -69.20185
     21       2.00000          -2.542980          -69.19802
     22       2.00000          -2.540989          -69.14382
     23       2.00000          -2.540498          -69.13048
     24       2.00000          -2.540212          -69.12267
     25       2.00000          -1.193196          -32.46852
     26       2.00000          -1.181089          -32.13908
     27       2.00000          -1.174980          -31.97284
     28       2.00000          -1.170314          -31.84586
     29       2.00000          -1.157664          -31.50164
     30       2.00000          -1.150089          -31.29551
     31       2.00000          -1.149749          -31.28626
     32       2.00000          -1.149345          -31.27528
     33       2.00000          -1.146244          -31.19089
     34       2.00000          -0.568359          -15.46585
     35       2.00000          -0.550814          -14.98840
     36       2.00000          -0.546526          -14.87173
     37       2.00000          -0.529747          -14.41514
     38       2.00000          -0.520078          -14.15206
     39       2.00000          -0.508374          -13.83356
     40       2.00000          -0.507509          -13.81003
     41       2.00000          -0.500628          -13.62279
     42       2.00000          -0.498550          -13.56623
     43       2.00000          -0.495505          -13.48337
     44       2.00000          -0.488396          -13.28992
     45       2.00000          -0.481483          -13.10182
     46       2.00000          -0.479274          -13.04171
     47       2.00000          -0.473833          -12.89365
     48       2.00000          -0.471274          -12.82401
     49       2.00000          -0.467801          -12.72950
     50       2.00000          -0.466470          -12.69329
     51       2.00000          -0.461460          -12.55696
     52       2.00000          -0.453017          -12.32723
     53       2.00000          -0.452520          -12.31370
     54       2.00000          -0.452083          -12.30181
     55       2.00000          -0.451603          -12.28873
     56       2.00000          -0.450154          -12.24931
     57       2.00000          -0.449225          -12.22403
     58       2.00000          -0.446690          -12.15506
     59       2.00000          -0.445442          -12.12109
     60       2.00000          -0.438480          -11.93164
     61       0.00000          -0.140309           -3.81800
     62       0.00000          -0.080315           -2.18549
     63       0.00000          -0.078297           -2.13057
     64       0.00000          -0.028162           -0.76632
     65       0.00000          -0.014995           -0.40804
     66       0.00000           0.007933            0.21587
     67       0.00000           0.016442            0.44742
     68       0.00000           0.024817            0.67529
     69       0.00000           0.049888            1.35752
     70       0.00000           0.065980            1.79541
     71       0.00000           0.087671            2.38565
     72       0.00000           0.125790            3.42291
     73       0.00000           0.144614            3.93514
     74       0.00000           0.164775            4.48376
     75       0.00000           0.171579            4.66890
     76       0.00000           0.173149            4.71162
     77       0.00000           0.185778            5.05527
     78       0.00000           0.193903            5.27637
     79       0.00000           0.209676            5.70559
     80       0.00000           0.220195            5.99181
     81       0.00000           0.224099            6.09804
     82       0.00000           0.235231            6.40095
     83       0.00000           0.241223            6.56401
     84       0.00000           0.253776            6.90558
     85       0.00000           0.258867            7.04413
     86       0.00000           0.259692            7.06657
     87       0.00000           0.264412            7.19502
     88       0.00000           0.270812            7.36916
     89       0.00000           0.271959            7.40037
     90       0.00000           0.301391            8.20126
     91       0.00000           0.317019            8.62653
     92       0.00000           0.325541            8.85841
     93       0.00000           0.347658            9.46026
     94       0.00000           0.358502            9.75533
     95       0.00000           0.374356           10.18675
     96       0.00000           0.381429           10.37922

  Highest occupied state (VBM) at    -11.93163713 eV
  | Occupation number:      2.00000000

  Lowest unoccupied state (CBM) at    -3.81799725 eV
  | Occupation number:      0.00000000

  Overall HOMO-LUMO gap:      8.11363989 eV.
  Calculating total energy contributions from superposition of free atom densities.

  Total energy components:
  | Sum of eigenvalues            :        -887.73995262 Ha      -24156.63318683 eV
  | XC energy correction          :        -144.41663467 Ha       -3929.77657414 eV
  | XC potential correction       :         188.04305400 Ha        5116.91184483 eV
  | Free-atom electrostatic energy:        -781.22883961 Ha      -21258.31833723 eV
  | Hartree energy correction     :           0.00000000 Ha           0.00000000 eV
  | Entropy correction            :           0.00000000 Ha           0.00000000 eV
  | ---------------------------
  | Total energy                  :       -1625.34237291 Ha      -44227.81625336 eV
  | Total energy, T -> 0          :       -1625.34237291 Ha      -44227.81625336 eV  <-- do not rely on this value for anything but (periodic) metals
  | Electronic free energy        :       -1625.34237291 Ha      -44227.81625336 eV

  Derived energy quantities:
  | Kinetic energy                :        1627.80117499 Ha       44294.72366233 eV
  | Electrostatic energy          :       -3108.72691324 Ha      -84592.76334156 eV
  | Energy correction for multipole
  | error in Hartree potential    :           0.00000000 Ha           0.00000000 eV
  | Sum of eigenvalues per atom                           :       -2013.05276557 eV
  | Total energy (T->0) per atom                          :       -3685.65135445 eV  <-- do not rely on this value for anything but (periodic) metals
  | Electronic free energy per atom                       :       -3685.65135445 eV
  Initialize hartree_potential_storage
  Max. number of atoms included in rho_multipole:           12

  End scf initialization - timings             :  max(cpu_time)    wall_clock(cpu1)
  | Time for scf. initialization                :        0.124 s           0.125 s
  | Boundary condition initialization           :        0.000 s           0.000 s
  | Integration                                 :        0.049 s           0.049 s
  | Solution of K.-S. eqns.                     :        0.012 s           0.013 s
  | Grid partitioning                           :        0.039 s           0.039 s
  | Preloading free-atom quantities on grid     :        0.016 s           0.016 s
  | Free-atom superposition energy              :        0.005 s           0.005 s
  | Total energy evaluation                     :        0.000 s           0.000 s

  Partial memory accounting:
  | Current value for overall tracked memory usage:
  |   Minimum:        0.273 MB (on task 23)
  |   Maximum:        0.292 MB (on task  0)
  |   Average:        0.287 MB
  | Peak value for overall tracked memory usage:
  |   Minimum:        1.281 MB (on task 23 after allocating wave)
  |   Maximum:        1.346 MB (on task 12 after allocating wave)
  |   Average:        1.315 MB
  | Largest tracked array allocation so far:
  |   Minimum:        0.224 MB (H_times_psi on task  4)
  |   Maximum:        0.541 MB (all_coords on task 10)
  |   Average:        0.265 MB
  Note:  These values currently only include a subset of arrays which are explicitly tracked.
  The "true" memory usage will be greater.
------------------------------------------------------------
  Evaluating new KS density.
  Integration grid: deviation in total charge (<rho> - N_e) =   1.421085E-14

  Time for density update prior                :  max(cpu_time)    wall_clock(cpu1)
  | self-consistency iterative process          :        0.030 s           0.030 s

------------------------------------------------------------
          Begin self-consistency iteration #    1

  Date     :  20220517, Time     :  121803.846
------------------------------------------------------------
  Pulay mixing of updated and previous charge densities.
  Renormalizing the density to the exact electron count on the 3D integration grid.
  | Formal number of electrons (from input files) :     120.0000000000
  | Integrated number of electrons on 3D grid     :     120.0000000000
  | Charge integration error                      :      -0.0000000000
  | Normalization factor for density and gradient :       1.0000000000

  Evaluating partitioned Hartree potential by multipole expansion.
  | Original multipole sum: apparent total charge =  -0.275495E-13
  | Sum of charges compensated after spline to logarithmic grids =   0.703950E-04
  | Analytical far-field extrapolation by fixed multipoles:
  | Hartree multipole sum: apparent total charge =  -0.253357E-13
  Summing up the Hartree potential.
  Time summed over all CPUs for potential: real work        0.383 s, elapsed        0.400 s
  | RMS charge density error from multipole expansion :   0.112080E-01

  Integrating Hamiltonian matrix: batch-based integration.
  Time summed over all CPUs for integration: real work        0.716 s, elapsed        0.775 s

  Updating Kohn-Sham eigenvalues and eigenvectors using ELSI and the ELPA eigensolver.
  Starting ELPA eigensolver
  Finished transformation to standard eigenproblem
  | Time :     0.000 s
  Finished solving standard eigenproblem
  | Time :     0.004 s
  Finished back-transformation of eigenvectors
  | Time :     0.000 s

  Obtaining occupation numbers and chemical potential using ELSI.
  | Chemical potential (Fermi level):    -7.51604320 eV
  Writing Kohn-Sham eigenvalues.

  State    Occupation    Eigenvalue [Ha]    Eigenvalue [eV]
      1       2.00000         -55.671364        -1514.89489
      2       2.00000         -55.671358        -1514.89473
      3       2.00000         -55.628768        -1513.73580
      4       2.00000         -24.256709         -660.05865
      5       2.00000         -24.223611         -659.15800
      6       2.00000         -24.223611         -659.15800
      7       2.00000         -24.223287         -659.14917
      8       2.00000         -24.182019         -658.02622
      9       2.00000         -24.077083         -655.17075
     10       2.00000         -24.077079         -655.17065
     11       2.00000         -24.056280         -654.60469
     12       2.00000         -24.048915         -654.40427
     13       2.00000          -4.109250         -111.81839
     14       2.00000          -4.109117         -111.81476
     15       2.00000          -4.067968         -110.69504
     16       2.00000          -2.703178          -73.55721
     17       2.00000          -2.702062          -73.52684
     18       2.00000          -2.701985          -73.52476
     19       2.00000          -2.701841          -73.52083
     20       2.00000          -2.701142          -73.50181
     21       2.00000          -2.701022          -73.49856
     22       2.00000          -2.661740          -72.42963
     23       2.00000          -2.660993          -72.40931
     24       2.00000          -2.659022          -72.35568
     25       2.00000          -1.175958          -31.99945
     26       2.00000          -1.146900          -31.20873
     27       2.00000          -1.143946          -31.12836
     28       2.00000          -1.138216          -30.97244
     29       2.00000          -1.104551          -30.05637
     30       2.00000          -1.023295          -27.84529
     31       2.00000          -1.023016          -27.83768
     32       2.00000          -1.005799          -27.36918
     33       2.00000          -0.996323          -27.11132
     34       2.00000          -0.571009          -15.53794
     35       2.00000          -0.537005          -14.61264
     36       2.00000          -0.533215          -14.50953
     37       2.00000          -0.507437          -13.80806
     38       2.00000          -0.503828          -13.70985
     39       2.00000          -0.481852          -13.11186
     40       2.00000          -0.481743          -13.10888
     41       2.00000          -0.469038          -12.76318
     42       2.00000          -0.456386          -12.41889
     43       2.00000          -0.438418          -11.92997
     44       2.00000          -0.438131          -11.92214
     45       2.00000          -0.428800          -11.66823
     46       2.00000          -0.426957          -11.61809
     47       2.00000          -0.414197          -11.27087
     48       2.00000          -0.390922          -10.63754
     49       2.00000          -0.390203          -10.61797
     50       2.00000          -0.380739          -10.36043
     51       2.00000          -0.377099          -10.26139
     52       2.00000          -0.348707           -9.48881
     53       2.00000          -0.334560           -9.10383
     54       2.00000          -0.334486           -9.10182
     55       2.00000          -0.331023           -9.00758
     56       2.00000          -0.328267           -8.93260
     57       2.00000          -0.316680           -8.61729
     58       2.00000          -0.316416           -8.61012
     59       2.00000          -0.304690           -8.29103
     60       2.00000          -0.300624           -8.18039
     61       0.00000          -0.156393           -4.25567
     62       0.00000          -0.092040           -2.50455
     63       0.00000          -0.078608           -2.13903
     64       0.00000          -0.053689           -1.46096
     65       0.00000          -0.044656           -1.21515
     66       0.00000          -0.015052           -0.40959
     67       0.00000           0.013836            0.37649
     68       0.00000           0.018842            0.51272
     69       0.00000           0.035665            0.97049
     70       0.00000           0.058379            1.58857
     71       0.00000           0.086987            2.36703
     72       0.00000           0.104377            2.84024
     73       0.00000           0.146144            3.97678
     74       0.00000           0.151380            4.11926
     75       0.00000           0.153661            4.18133
     76       0.00000           0.164025            4.46334
     77       0.00000           0.174501            4.74842
     78       0.00000           0.201146            5.47347
     79       0.00000           0.207597            5.64900
     80       0.00000           0.211421            5.75307
     81       0.00000           0.221472            6.02656
     82       0.00000           0.222547            6.05580
     83       0.00000           0.224487            6.10859
     84       0.00000           0.227977            6.20356
     85       0.00000           0.236946            6.44763
     86       0.00000           0.247341            6.73050
     87       0.00000           0.253052            6.88589
     88       0.00000           0.264175            7.18858
     89       0.00000           0.268548            7.30756
     90       0.00000           0.293158            7.97723
     91       0.00000           0.317775            8.64709
     92       0.00000           0.318718            8.67276
     93       0.00000           0.359620            9.78576
     94       0.00000           0.365816            9.95436
     95       0.00000           0.371170           10.10004
     96       0.00000           0.380650           10.35801

  Highest occupied state (VBM) at     -8.18038911 eV
  | Occupation number:      2.00000000

  Lowest unoccupied state (CBM) at    -4.25566587 eV
  | Occupation number:      0.00000000

  Overall HOMO-LUMO gap:      3.92472325 eV.

  Total energy components:
  | Sum of eigenvalues            :        -883.43968124 Ha      -24039.61684890 eV
  | XC energy correction          :        -145.67840402 Ha       -3964.11106518 eV
  | XC potential correction       :         189.70134062 Ha        5162.03611979 eV
  | Free-atom electrostatic energy:        -781.22883961 Ha      -21258.31833723 eV
  | Hartree energy correction     :          -4.49202230 Ha        -122.23414588 eV
  | Entropy correction            :           0.00000000 Ha           0.00000000 eV
  | ---------------------------
  | Total energy                  :       -1625.13760656 Ha      -44222.24427740 eV
  | Total energy, T -> 0          :       -1625.13760656 Ha      -44222.24427740 eV  <-- do not rely on this value for anything but (periodic) metals
  | Electronic free energy        :       -1625.13760656 Ha      -44222.24427740 eV

  Derived energy quantities:
  | Kinetic energy                :        1633.77104073 Ha       44457.17197439 eV
  | Electrostatic energy          :       -3113.23024327 Ha      -84715.30518661 eV
  | Energy correction for multipole
  | error in Hartree potential    :           0.03135760 Ha           0.85328363 eV
  | Sum of eigenvalues per atom                           :       -2003.30140408 eV
  | Total energy (T->0) per atom                          :       -3685.18702312 eV  <-- do not rely on this value for anything but (periodic) metals
  | Electronic free energy per atom                       :       -3685.18702312 eV
  Evaluating new KS density.
  Integration grid: deviation in total charge (<rho> - N_e) =   2.842171E-14

  Self-consistency convergence accuracy:
  | Change of charge density      :  0.5845E+00
  | Change of sum of eigenvalues  :  0.1170E+03 eV
  | Change of total energy        :  0.5572E+01 eV


------------------------------------------------------------
  End self-consistency iteration #     1       :  max(cpu_time)    wall_clock(cpu1)
  | Time for this iteration                     :        0.086 s           0.086 s
  | Charge density update                       :        0.029 s           0.029 s
  | Density mixing                              :        0.001 s           0.001 s
  | Hartree multipole update                    :        0.001 s           0.001 s
  | Hartree multipole summation                 :        0.017 s           0.017 s
  | Integration                                 :        0.033 s           0.033 s
  | Solution of K.-S. eqns.                     :        0.004 s           0.004 s
  | Total energy evaluation                     :        0.000 s           0.001 s

  Partial memory accounting:
  | Current value for overall tracked memory usage:
  |   Minimum:        0.273 MB (on task 23)
  |   Maximum:        0.292 MB (on task  0)
  |   Average:        0.287 MB
  | Peak value for overall tracked memory usage:
  |   Minimum:        1.281 MB (on task 23 after allocating wave)
  |   Maximum:        1.346 MB (on task 12 after allocating wave)
  |   Average:        1.315 MB
  | Largest tracked array allocation so far:
  |   Minimum:        0.668 MB (gradient_basis_wave on task 10)
  |   Maximum:        0.701 MB (gradient_basis_wave on task 12)
  |   Average:        0.684 MB
  Note:  These values currently only include a subset of arrays which are explicitly tracked.
  The "true" memory usage will be greater.
------------------------------------------------------------

------------------------------------------------------------
          Begin self-consistency iteration #    2

  Date     :  20220517, Time     :  121803.936
------------------------------------------------------------
  Pulay mixing of updated and previous charge densities.
  Renormalizing the density to the exact electron count on the 3D integration grid.
  | Formal number of electrons (from input files) :     120.0000000000
  | Integrated number of electrons on 3D grid     :     120.0000000000
  | Charge integration error                      :       0.0000000000
  | Normalization factor for density and gradient :       1.0000000000

  Evaluating partitioned Hartree potential by multipole expansion.
  | Original multipole sum: apparent total charge =  -0.811725E-15
  | Sum of charges compensated after spline to logarithmic grids =   0.288978E-04
  | Analytical far-field extrapolation by fixed multipoles:
  | Hartree multipole sum: apparent total charge =  -0.245977E-15
  Summing up the Hartree potential.
  Time summed over all CPUs for potential: real work        0.380 s, elapsed        0.397 s
  | RMS charge density error from multipole expansion :   0.129776E-01

  Integrating Hamiltonian matrix: batch-based integration.
  Time summed over all CPUs for integration: real work        0.714 s, elapsed        0.768 s

  Updating Kohn-Sham eigenvalues and eigenvectors using ELSI and the ELPA eigensolver.
  Starting ELPA eigensolver
  Finished transformation to standard eigenproblem
  | Time :     0.000 s
  Finished solving standard eigenproblem
  | Time :     0.004 s
  Finished back-transformation of eigenvectors
  | Time :     0.000 s

  Obtaining occupation numbers and chemical potential using ELSI.
  | Chemical potential (Fermi level):    -7.73382589 eV
  Highest occupied state (VBM) at     -9.25311525 eV
  | Occupation number:      2.00000000

  Lowest unoccupied state (CBM) at    -4.44775168 eV
  | Occupation number:      0.00000000

  Overall HOMO-LUMO gap:      4.80536357 eV.

  Checking to see if s.c.f. parameters should be adjusted.

  Total energy components:
  | Sum of eigenvalues            :        -886.21840210 Ha      -24115.22969043 eV
  | XC energy correction          :        -145.21684381 Ha       -3951.55137271 eV
  | XC potential correction       :         189.09410631 Ha        5145.51243357 eV
  | Free-atom electrostatic energy:        -781.22883961 Ha      -21258.31833723 eV
  | Hartree energy correction     :          -1.50993831 Ha         -41.08751184 eV
  | Entropy correction            :           0.00000000 Ha           0.00000000 eV
  | ---------------------------
  | Total energy                  :       -1625.07991751 Ha      -44220.67447864 eV
  | Total energy, T -> 0          :       -1625.07991751 Ha      -44220.67447864 eV  <-- do not rely on this value for anything but (periodic) metals
  | Electronic free energy        :       -1625.07991751 Ha      -44220.67447864 eV

  Derived energy quantities:
  | Kinetic energy                :        1630.07322233 Ha       44356.54921597 eV
  | Electrostatic energy          :       -3109.93629603 Ha      -84625.67232190 eV
  | Energy correction for multipole
  | error in Hartree potential    :           0.03527896 Ha           0.95998925 eV
  | Sum of eigenvalues per atom                           :       -2009.60247420 eV
  | Total energy (T->0) per atom                          :       -3685.05620655 eV  <-- do not rely on this value for anything but (periodic) metals
  | Electronic free energy per atom                       :       -3685.05620655 eV
  Evaluating new KS density.
  Integration grid: deviation in total charge (<rho> - N_e) =  -4.263256E-14

  Self-consistency convergence accuracy:
  | Change of charge density      :  0.4519E+00
  | Change of sum of eigenvalues  : -0.7561E+02 eV
  | Change of total energy        :  0.1570E+01 eV


------------------------------------------------------------
  End self-consistency iteration #     2       :  max(cpu_time)    wall_clock(cpu1)
  | Time for this iteration                     :        0.089 s           0.088 s
  | Charge density update                       :        0.029 s           0.030 s
  | Density mixing                              :        0.004 s           0.003 s
  | Hartree multipole update                    :        0.001 s           0.002 s
  | Hartree multipole summation                 :        0.017 s           0.017 s
  | Integration                                 :        0.032 s           0.032 s
  | Solution of K.-S. eqns.                     :        0.004 s           0.004 s
  | Total energy evaluation                     :        0.000 s           0.000 s

  Partial memory accounting:
  | Current value for overall tracked memory usage:
  |   Minimum:        0.274 MB (on task 23)
  |   Maximum:        0.293 MB (on task  0)
  |   Average:        0.288 MB
  | Peak value for overall tracked memory usage:
  |   Minimum:        1.281 MB (on task 23 after allocating wave)
  |   Maximum:        1.346 MB (on task 12 after allocating wave)
  |   Average:        1.315 MB
  | Largest tracked array allocation so far:
  |   Minimum:        0.668 MB (gradient_basis_wave on task 10)
  |   Maximum:        0.701 MB (gradient_basis_wave on task 12)
  |   Average:        0.684 MB
  Note:  These values currently only include a subset of arrays which are explicitly tracked.
  The "true" memory usage will be greater.
------------------------------------------------------------

------------------------------------------------------------
          Begin self-consistency iteration #    3

  Date     :  20220517, Time     :  121804.030
------------------------------------------------------------
  Pulay mixing of updated and previous charge densities.
  Renormalizing the density to the exact electron count on the 3D integration grid.
  | Formal number of electrons (from input files) :     120.0000000000
  | Integrated number of electrons on 3D grid     :     120.0000000000
  | Charge integration error                      :       0.0000000000
  | Normalization factor for density and gradient :       1.0000000000

  Evaluating partitioned Hartree potential by multipole expansion.
  | Original multipole sum: apparent total charge =   0.519381E-13
  | Sum of charges compensated after spline to logarithmic grids =   0.321366E-04
  | Analytical far-field extrapolation by fixed multipoles:
  | Hartree multipole sum: apparent total charge =   0.517782E-13
  Summing up the Hartree potential.
  Time summed over all CPUs for potential: real work        0.379 s, elapsed        0.397 s
  | RMS charge density error from multipole expansion :   0.174648E-01

  Integrating Hamiltonian matrix: batch-based integration.
  Time summed over all CPUs for integration: real work        0.714 s, elapsed        0.767 s

  Updating Kohn-Sham eigenvalues and eigenvectors using ELSI and the ELPA eigensolver.
  Starting ELPA eigensolver
  Finished transformation to standard eigenproblem
  | Time :     0.001 s
  Finished solving standard eigenproblem
  | Time :     0.003 s
  Finished back-transformation of eigenvectors
  | Time :     0.000 s

  Obtaining occupation numbers and chemical potential using ELSI.
  | Chemical potential (Fermi level):    -7.76357369 eV
  Highest occupied state (VBM) at     -8.93795686 eV
  | Occupation number:      2.00000000

  Lowest unoccupied state (CBM) at    -4.65452020 eV
  | Occupation number:      0.00000000

  Overall HOMO-LUMO gap:      4.28343666 eV.

  Total energy components:
  | Sum of eigenvalues            :        -887.18478782 Ha      -24141.52638395 eV
  | XC energy correction          :        -145.18134631 Ha       -3950.58543668 eV
  | XC potential correction       :         189.04624642 Ha        5144.21009974 eV
  | Free-atom electrostatic energy:        -781.22883961 Ha      -21258.31833723 eV
  | Hartree energy correction     :          -0.53049191 Ha         -14.43541933 eV
  | Entropy correction            :           0.00000000 Ha           0.00000000 eV
  | ---------------------------
  | Total energy                  :       -1625.07921923 Ha      -44220.65547745 eV
  | Total energy, T -> 0          :       -1625.07921923 Ha      -44220.65547745 eV  <-- do not rely on this value for anything but (periodic) metals
  | Electronic free energy        :       -1625.07921923 Ha      -44220.65547745 eV

  Derived energy quantities:
  | Kinetic energy                :        1628.43467024 Ha       44311.96194491 eV
  | Electrostatic energy          :       -3108.33254316 Ha      -84582.03198568 eV
  | Energy correction for multipole
  | error in Hartree potential    :           0.04761100 Ha           1.29556133 eV
  | Sum of eigenvalues per atom                           :       -2011.79386533 eV
  | Total energy (T->0) per atom                          :       -3685.05462312 eV  <-- do not rely on this value for anything but (periodic) metals
  | Electronic free energy per atom                       :       -3685.05462312 eV
  Evaluating new KS density.
  Integration grid: deviation in total charge (<rho> - N_e) =   0.000000E+00

  Self-consistency convergence accuracy:
  | Change of charge density      :  0.1213E+00
  | Change of sum of eigenvalues  : -0.2630E+02 eV
  | Change of total energy        :  0.1900E-01 eV


------------------------------------------------------------
  End self-consistency iteration #     3       :  max(cpu_time)    wall_clock(cpu1)
  | Time for this iteration                     :        0.088 s           0.086 s
  | Charge density update                       :        0.029 s           0.030 s
  | Density mixing                              :        0.004 s           0.002 s
  | Hartree multipole update                    :        0.001 s           0.001 s
  | Hartree multipole summation                 :        0.017 s           0.017 s
  | Integration                                 :        0.032 s           0.032 s
  | Solution of K.-S. eqns.                     :        0.004 s           0.004 s
  | Total energy evaluation                     :        0.000 s           0.000 s

  Partial memory accounting:
  | Current value for overall tracked memory usage:
  |   Minimum:        0.274 MB (on task 23)
  |   Maximum:        0.293 MB (on task  0)
  |   Average:        0.288 MB
  | Peak value for overall tracked memory usage:
  |   Minimum:        1.281 MB (on task 23 after allocating wave)
  |   Maximum:        1.346 MB (on task 12 after allocating wave)
  |   Average:        1.315 MB
  | Largest tracked array allocation so far:
  |   Minimum:        0.668 MB (gradient_basis_wave on task 10)
  |   Maximum:        0.701 MB (gradient_basis_wave on task 12)
  |   Average:        0.684 MB
  Note:  These values currently only include a subset of arrays which are explicitly tracked.
  The "true" memory usage will be greater.
------------------------------------------------------------

------------------------------------------------------------
          Begin self-consistency iteration #    4

  Date     :  20220517, Time     :  121804.122
------------------------------------------------------------
  Pulay mixing of updated and previous charge densities.
  Renormalizing the density to the exact electron count on the 3D integration grid.
  | Formal number of electrons (from input files) :     120.0000000000
  | Integrated number of electrons on 3D grid     :     120.0000000000
  | Charge integration error                      :      -0.0000000000
  | Normalization factor for density and gradient :       1.0000000000

  Evaluating partitioned Hartree potential by multipole expansion.
  | Original multipole sum: apparent total charge =   0.994979E-14
  | Sum of charges compensated after spline to logarithmic grids =   0.332471E-04
  | Analytical far-field extrapolation by fixed multipoles:
  | Hartree multipole sum: apparent total charge =   0.863381E-14
  Summing up the Hartree potential.
  Time summed over all CPUs for potential: real work        0.380 s, elapsed        0.398 s
  | RMS charge density error from multipole expansion :   0.195615E-01

  Integrating Hamiltonian matrix: batch-based integration.
  Time summed over all CPUs for integration: real work        0.714 s, elapsed        0.767 s

  Updating Kohn-Sham eigenvalues and eigenvectors using ELSI and the ELPA eigensolver.
  Starting ELPA eigensolver
  Finished transformation to standard eigenproblem
  | Time :     0.001 s
  Finished solving standard eigenproblem
  | Time :     0.003 s
  Finished back-transformation of eigenvectors
  | Time :     0.000 s

  Obtaining occupation numbers and chemical potential using ELSI.
  | Chemical potential (Fermi level):    -7.74493380 eV
  Highest occupied state (VBM) at     -8.96448860 eV
  | Occupation number:      2.00000000

  Lowest unoccupied state (CBM) at    -4.61995852 eV
  | Occupation number:      0.00000000

  Overall HOMO-LUMO gap:      4.34453008 eV.

  Total energy components:
  | Sum of eigenvalues            :        -887.30679097 Ha      -24144.84625850 eV
  | XC energy correction          :        -145.16657914 Ha       -3950.18360149 eV
  | XC potential correction       :         189.02617057 Ha        5143.66380781 eV
  | Free-atom electrostatic energy:        -781.22883961 Ha      -21258.31833723 eV
  | Hartree energy correction     :          -0.40113382 Ha         -10.91540666 eV
  | Entropy correction            :           0.00000000 Ha           0.00000000 eV
  | ---------------------------
  | Total energy                  :       -1625.07717298 Ha      -44220.59979607 eV
  | Total energy, T -> 0          :       -1625.07717298 Ha      -44220.59979607 eV  <-- do not rely on this value for anything but (periodic) metals
  | Electronic free energy        :       -1625.07717298 Ha      -44220.59979607 eV

  Derived energy quantities:
  | Kinetic energy                :        1627.77724337 Ha       44294.07244960 eV
  | Electrostatic energy          :       -3107.68783721 Ha      -84564.48864417 eV
  | Energy correction for multipole
  | error in Hartree potential    :           0.05276505 Ha           1.43581007 eV
  | Sum of eigenvalues per atom                           :       -2012.07052154 eV
  | Total energy (T->0) per atom                          :       -3685.04998301 eV  <-- do not rely on this value for anything but (periodic) metals
  | Electronic free energy per atom                       :       -3685.04998301 eV
  Evaluating new KS density.
  Integration grid: deviation in total charge (<rho> - N_e) =   2.842171E-14

  Self-consistency convergence accuracy:
  | Change of charge density      :  0.8103E-01
  | Change of sum of eigenvalues  : -0.3320E+01 eV
  | Change of total energy        :  0.5568E-01 eV


------------------------------------------------------------
  End self-consistency iteration #     4       :  max(cpu_time)    wall_clock(cpu1)
  | Time for this iteration                     :        0.088 s           0.086 s
  | Charge density update                       :        0.029 s           0.030 s
  | Density mixing                              :        0.004 s           0.002 s
  | Hartree multipole update                    :        0.001 s           0.001 s
  | Hartree multipole summation                 :        0.017 s           0.017 s
  | Integration                                 :        0.032 s           0.032 s
  | Solution of K.-S. eqns.                     :        0.004 s           0.004 s
  | Total energy evaluation                     :        0.000 s           0.000 s

  Partial memory accounting:
  | Current value for overall tracked memory usage:
  |   Minimum:        0.274 MB (on task 23)
  |   Maximum:        0.293 MB (on task  0)
  |   Average:        0.288 MB
  | Peak value for overall tracked memory usage:
  |   Minimum:        1.281 MB (on task 23 after allocating wave)
  |   Maximum:        1.346 MB (on task 12 after allocating wave)
  |   Average:        1.315 MB
  | Largest tracked array allocation so far:
  |   Minimum:        0.668 MB (gradient_basis_wave on task 10)
  |   Maximum:        0.701 MB (gradient_basis_wave on task 12)
  |   Average:        0.684 MB
  Note:  These values currently only include a subset of arrays which are explicitly tracked.
  The "true" memory usage will be greater.
------------------------------------------------------------

------------------------------------------------------------
          Begin self-consistency iteration #    5

  Date     :  20220517, Time     :  121804.213
------------------------------------------------------------
  Pulay mixing of updated and previous charge densities.
  Renormalizing the density to the exact electron count on the 3D integration grid.
  | Formal number of electrons (from input files) :     120.0000000000
  | Integrated number of electrons on 3D grid     :     120.0000000000
  | Charge integration error                      :       0.0000000000
  | Normalization factor for density and gradient :       1.0000000000

  Evaluating partitioned Hartree potential by multipole expansion.
  | Original multipole sum: apparent total charge =   0.490602E-13
  | Sum of charges compensated after spline to logarithmic grids =   0.342306E-04
  | Analytical far-field extrapolation by fixed multipoles:
  | Hartree multipole sum: apparent total charge =   0.468833E-13
  Summing up the Hartree potential.
  Time summed over all CPUs for potential: real work        0.380 s, elapsed        0.398 s
  | RMS charge density error from multipole expansion :   0.193977E-01

  Integrating Hamiltonian matrix: batch-based integration.
  Time summed over all CPUs for integration: real work        0.714 s, elapsed        0.767 s

  Updating Kohn-Sham eigenvalues and eigenvectors using ELSI and the ELPA eigensolver.
  Starting ELPA eigensolver
  Finished transformation to standard eigenproblem
  | Time :     0.000 s
  Finished solving standard eigenproblem
  | Time :     0.003 s
  Finished back-transformation of eigenvectors
  | Time :     0.000 s

  Obtaining occupation numbers and chemical potential using ELSI.
  | Chemical potential (Fermi level):    -7.73321632 eV
  Highest occupied state (VBM) at     -9.03322486 eV
  | Occupation number:      2.00000000

  Lowest unoccupied state (CBM) at    -4.56587924 eV
  | Occupation number:      0.00000000

  Overall HOMO-LUMO gap:      4.46734562 eV.

  Total energy components:
  | Sum of eigenvalues            :        -887.12212886 Ha      -24139.82134698 eV
  | XC energy correction          :        -145.16444949 Ha       -3950.12565084 eV
  | XC potential correction       :         189.02352344 Ha        5143.59177598 eV
  | Free-atom electrostatic energy:        -781.22883961 Ha      -21258.31833723 eV
  | Hartree energy correction     :          -0.58516022 Ha         -15.92301967 eV
  | Entropy correction            :           0.00000000 Ha           0.00000000 eV
[...]
   Total forces(   7)            :  0.597023E+00 -0.766355E+00 -0.130315E+01
  atom #    8
   Hellmann-Feynman              : -0.209246E+01 -0.172733E+01  0.211732E+01
   Ionic forces                  :  0.000000E+00  0.000000E+00  0.000000E+00
   Multipole                     : -0.505119E+00 -0.471235E+00  0.548622E+00
   Hartree pot. SCF incomplete   : -0.232468E-05 -0.142583E-05  0.227588E-05
   Pulay + GGA                   :  0.463885E+01  0.393542E+01 -0.475483E+01
   ----------------------------------------------------------------
   Total forces(   8)            :  0.204127E+01  0.173686E+01 -0.208888E+01
  atom #    9
   Hellmann-Feynman              :  0.215443E+01 -0.862035E+00 -0.254033E+01
   Ionic forces                  :  0.000000E+00  0.000000E+00  0.000000E+00
   Multipole                     :  0.566274E+00 -0.253073E+00 -0.627163E+00
   Hartree pot. SCF incomplete   :  0.223657E-05 -0.499137E-06 -0.271731E-05
   Pulay + GGA                   : -0.485486E+01  0.200432E+01  0.565902E+01
   ----------------------------------------------------------------
   Total forces(   9)            : -0.213415E+01  0.889216E+00  0.249153E+01
  atom #   10
   Hellmann-Feynman              :  0.932514E+00  0.247933E+00 -0.241200E+00
   Ionic forces                  :  0.000000E+00  0.000000E+00  0.000000E+00
   Multipole                     :  0.141688E+00  0.154177E+00 -0.102437E+00
   Hartree pot. SCF incomplete   :  0.468096E-05  0.693069E-05 -0.158683E-05
   Pulay + GGA                   : -0.214294E+01 -0.150834E+01  0.868691E+00
   ----------------------------------------------------------------
   Total forces(  10)            : -0.106873E+01 -0.110622E+01  0.525052E+00
  atom #   11
   Hellmann-Feynman              :  0.102372E+01  0.702193E+00  0.106068E+01
   Ionic forces                  :  0.000000E+00  0.000000E+00  0.000000E+00
   Multipole                     : -0.363179E+00  0.259310E+00 -0.282639E+00
   Hartree pot. SCF incomplete   : -0.510509E-05  0.178244E-05 -0.431893E-05
   Pulay + GGA                   :  0.102406E+01 -0.178931E+01  0.603597E+00
   ----------------------------------------------------------------
   Total forces(  11)            :  0.168460E+01 -0.827803E+00  0.138163E+01
  atom #   12
   Hellmann-Feynman              :  0.125581E+00  0.102371E+01  0.301613E+00
   Ionic forces                  :  0.000000E+00  0.000000E+00  0.000000E+00
   Multipole                     :  0.438878E+00 -0.623568E-02  0.398903E+00
   Hartree pot. SCF incomplete   :  0.469655E-05  0.157315E-05  0.456747E-05
   Pulay + GGA                   : -0.241037E+01 -0.116611E+01 -0.241116E+01
   ----------------------------------------------------------------
   Total forces(  12)            : -0.184590E+01 -0.148635E+00 -0.171064E+01


  Self-consistency convergence accuracy:
  | Change of charge density      :  0.1780E-06
  | Change of sum of eigenvalues  :  0.1851E-05 eV
  | Change of total energy        :  0.2450E-08 eV
  | Change of forces              :  0.4451E-06 eV/A

  Writing Kohn-Sham eigenvalues.

  State    Occupation    Eigenvalue [Ha]    Eigenvalue [eV]
      1       2.00000         -55.656581        -1514.49262
      2       2.00000         -55.656573        -1514.49241
      3       2.00000         -55.604947        -1513.08759
      4       2.00000         -24.320538         -661.79551
      5       2.00000         -24.305657         -661.39057
      6       2.00000         -24.296353         -661.13740
      7       2.00000         -24.296352         -661.13737
      8       2.00000         -24.277469         -660.62355
      9       2.00000         -24.223500         -659.15498
     10       2.00000         -24.223496         -659.15487
     11       2.00000         -24.188552         -658.20400
     12       2.00000         -24.182574         -658.04132
     13       2.00000          -4.107474         -111.77006
     14       2.00000          -4.107342         -111.76646
     15       2.00000          -4.057355         -110.40625
     16       2.00000          -2.700914          -73.49561
     17       2.00000          -2.700792          -73.49228
     18       2.00000          -2.698989          -73.44323
     19       2.00000          -2.698252          -73.42319
     20       2.00000          -2.697864          -73.41262
     21       2.00000          -2.697348          -73.39857
     22       2.00000          -2.650358          -72.11990
     23       2.00000          -2.650276          -72.11767
     24       2.00000          -2.645876          -71.99795
     25       2.00000          -1.192400          -32.44686
     26       2.00000          -1.168101          -31.78564
     27       2.00000          -1.163793          -31.66842
     28       2.00000          -1.160105          -31.56807
     29       2.00000          -1.132646          -30.82088
     30       2.00000          -1.070234          -29.12254
     31       2.00000          -1.069980          -29.11565
     32       2.00000          -1.037722          -28.23786
     33       2.00000          -1.028521          -27.98748
     34       2.00000          -0.585538          -15.93329
     35       2.00000          -0.553653          -15.06567
     36       2.00000          -0.547780          -14.90586
     37       2.00000          -0.525172          -14.29067
     38       2.00000          -0.522034          -14.20526
     39       2.00000          -0.503735          -13.70732
     40       2.00000          -0.502098          -13.66277
     41       2.00000          -0.488092          -13.28165
     42       2.00000          -0.480963          -13.08767
     43       2.00000          -0.462040          -12.57275
     44       2.00000          -0.459737          -12.51007
     45       2.00000          -0.449334          -12.22700
     46       2.00000          -0.448910          -12.21545
     47       2.00000          -0.439808          -11.96778
     48       2.00000          -0.431000          -11.72810
     49       2.00000          -0.423893          -11.53471
     50       2.00000          -0.417333          -11.35622
     51       2.00000          -0.404635          -11.01069
     52       2.00000          -0.380098          -10.34300
     53       2.00000          -0.378009          -10.28616
     54       2.00000          -0.377652          -10.27643
     55       2.00000          -0.373393          -10.16054
     56       2.00000          -0.371355          -10.10509
     57       2.00000          -0.345666           -9.40606
     58       2.00000          -0.344433           -9.37250
     59       2.00000          -0.334502           -9.10227
     60       2.00000          -0.331122           -9.01028
     61       0.00000          -0.167812           -4.56638
     62       0.00000          -0.104707           -2.84921
     63       0.00000          -0.086400           -2.35106
     64       0.00000          -0.058704           -1.59741
     65       0.00000          -0.048415           -1.31745
     66       0.00000          -0.020335           -0.55335
     67       0.00000           0.013081            0.35594
     68       0.00000           0.016660            0.45335
     69       0.00000           0.030877            0.84022
     70       0.00000           0.057569            1.56652
     71       0.00000           0.081949            2.22995
     72       0.00000           0.100691            2.73994
     73       0.00000           0.139395            3.79314
     74       0.00000           0.146535            3.98743
     75       0.00000           0.153227            4.16953
     76       0.00000           0.156556            4.26010
     77       0.00000           0.171403            4.66412
     78       0.00000           0.196987            5.36030
     79       0.00000           0.204912            5.57593
     80       0.00000           0.207358            5.64251
     81       0.00000           0.216709            5.89695
     82       0.00000           0.217696            5.92381
     83       0.00000           0.222675            6.05930
     84       0.00000           0.223595            6.08432
     85       0.00000           0.231614            6.30253
     86       0.00000           0.240804            6.55260
     87       0.00000           0.249521            6.78980
     88       0.00000           0.258236            7.02695
     89       0.00000           0.261119            7.10540
     90       0.00000           0.291371            7.92861
     91       0.00000           0.305401            8.31037
     92       0.00000           0.319194            8.68571
     93       0.00000           0.354592            9.64894
     94       0.00000           0.361092            9.82582
     95       0.00000           0.363726            9.89750
     96       0.00000           0.372510           10.13651

  Highest occupied state (VBM) at     -9.01027519 eV
  | Occupation number:      2.00000000

  Lowest unoccupied state (CBM) at    -4.56638413 eV
  | Occupation number:      0.00000000

  Overall HOMO-LUMO gap:      4.44389106 eV.
  | Chemical Potential                          :    -7.73024180 eV

  Self-consistency cycle converged.


------------------------------------------------------------
  End self-consistency iteration #    14       :  max(cpu_time)    wall_clock(cpu1)
  | Time for this iteration                     :        0.277 s           0.276 s
  | Charge density & force component update     :        0.154 s           0.154 s
  | Density mixing                              :        0.005 s           0.004 s
  | Hartree multipole update                    :        0.001 s           0.001 s
  | Hartree multipole summation                 :        0.048 s           0.048 s
  | Hartree pot. SCF incomplete forces          :        0.031 s           0.031 s
  | Integration                                 :        0.032 s           0.033 s
  | Solution of K.-S. eqns.                     :        0.004 s           0.004 s
  | Total energy evaluation                     :        0.000 s           0.000 s

  Partial memory accounting:
  | Current value for overall tracked memory usage:
  |   Minimum:        0.274 MB (on task 23)
  |   Maximum:        0.293 MB (on task  0)
  |   Average:        0.289 MB
  | Peak value for overall tracked memory usage:
  |   Minimum:        2.759 MB (on task 23 after allocating hessian_basis_wave)
  |   Maximum:        2.873 MB (on task 12 after allocating hessian_basis_wave)
  |   Average:        2.813 MB
  | Largest tracked array allocation so far:
  |   Minimum:        1.336 MB (hessian_basis_wave on task 10)
  |   Maximum:        1.401 MB (hessian_basis_wave on task 12)
  |   Average:        1.368 MB
  Note:  These values currently only include a subset of arrays which are explicitly tracked.
  The "true" memory usage will be greater.
------------------------------------------------------------
  Removing unitary transformations (pure translations, rotations) from forces on atoms.
  Atomic forces before filtering:
  | Net force on center of mass :  -0.142614E-02  0.191056E-02 -0.365555E-02 eV/A
  | Net torque on center of mass:   0.107021E-01  0.658081E-02 -0.218874E-02 eV
  Atomic forces after filtering:
  | Net force on center of mass :   0.356812E-15 -0.691324E-15  0.000000E+00 eV/A
  | Net torque on center of mass:   0.146333E-14  0.000000E+00  0.226580E-14 eV

  Energy and forces in a compact form:
  | Total energy uncorrected      :         -0.442205963449463E+05 eV
  | Total energy corrected        :         -0.442205963449463E+05 eV  <-- do not rely on this value for anything but (periodic) metals
  | Electronic free energy        :         -0.442205963449463E+05 eV
  Total atomic forces (unitary forces cleaned) [eV/Ang]:
  |    1         -0.698115504526889E+00          0.343021773744922E+01          0.114380072596255E-03
  |    2          0.232441145470496E+01         -0.847762157681588E+00         -0.240694825919830E+01
  |    3         -0.194470650286998E+01         -0.171725609796644E+01          0.227777859708424E+01
  |    4         -0.140899834430566E+01         -0.227841066204173E+01         -0.170723054176571E+01
  |    5          0.220134799240367E+01         -0.707921321878547E+00          0.187501614519774E+01
  |    6          0.251103301958156E+00          0.234489074938239E+01          0.663158385669040E+00
  |    7          0.596823194310981E+00         -0.766264908373863E+00         -0.130314944359431E+01
  |    8          0.204119117899216E+01          0.173698256555653E+01         -0.208845629861547E+01
  |    9         -0.213351512930957E+01          0.888720793142743E+00          0.249248789518283E+01
  |   10         -0.106853789388920E+01         -0.110647671763076E+01          0.525349101452453E+00
  |   11          0.168489943261067E+01         -0.828225831672917E+00          0.138181663758232E+01
  |   12         -0.184590318007929E+01         -0.148494148285049E+00         -0.170993659906743E+01

  ------------------------------------ 
  Start decomposition of the XC Energy 
  ------------------------------------ 
  X and C from original XC functional choice 
  Hartree-Fock Energy :          0.000000000 Ha              0.000000000 eV
  X Energy            :       -140.208804650 Ha          -3815.275693606 eV
  C Energy            :         -4.958966833 Ha           -134.940353209 eV
  Total XC Energy     :       -145.167771482 Ha          -3950.216046815 eV
  ------------------------------------ 
  LDA X and C from self-consistent density 
  X Energy LDA        :       -132.799801116 Ha          -3613.666449698 eV
  C Energy LDA        :         -8.828445423 Ha           -240.234222942 eV
  ------------------------------------ 
  End decomposition of the XC Energy 
  ------------------------------------ 

------------------------------------------------------------

------------------------------------------------------------------------------
  Final output of selected total energy values:

  The following output summarizes some interesting total energy values
  at the end of a run (AFTER all relaxation, molecular dynamics, etc.).

  | Total energy of the DFT / Hartree-Fock s.c.f. calculation      :         -44220.596344946 eV
  | Final zero-broadening corrected energy (caution - metals only) :         -44220.596344946 eV
  | For reference only, the value of 1 Hartree used in FHI-aims is :             27.211384500 eV

  Before relying on these values, please be sure to understand exactly which
  total energy value is referred to by a given number. Different objects may
  all carry the same name 'total energy'. Definitions:

  Total energy of the DFT / Hartree-Fock s.c.f. calculation:
  | Note that this energy does not include ANY quantities calculated after the
  | s.c.f. cycle, in particular not ANY RPA, MP2, etc. many-body perturbation terms.

  Final zero-broadening corrected energy:
  | For metallic systems only, a broadening of the occupation numbers at the Fermi
  | level can be extrapolated back to zero broadening by an electron-gas inspired
  | formula. For all systems that are not real metals, this value can be
  | meaningless and should be avoided.

------------------------------------------------------------------------------
  Methods described in the following list of references were used in this FHI-aims run.
  If you publish the results, please make sure to cite these reference if they apply.
  FHI-aims is an academic code, and for our developers (often, Ph.D. students
  and postdocs), scientific credit in the community is essential.
  Thank you for helping us!

  For any use of FHI-aims, please cite:

    Volker Blum, Ralf Gehrke, Felix Hanke, Paula Havu, Ville Havu,
    Xinguo Ren, Karsten Reuter, and Matthias Scheffler
    'Ab initio molecular simulations with numeric atom-centered orbitals'
    Computer Physics Communications 180, 2175-2196 (2009)
    http://dx.doi.org/10.1016/j.cpc.2009.06.022


  The ELSI infrastructure was used in your run to solve the Kohn-Sham electronic structure.
  Please check out http://elsi-interchange.org to learn more.
  If scalability is important for your project, please acknowledge ELSI by citing:

    V. W-z. Yu, F. Corsetti, A. Garcia, W. P. Huhn, M. Jacquelin, W. Jia,
    B. Lange, L. Lin, J. Lu, W. Mi, A. Seifitokaldani, A. Vazquez-Mayagoitia,
    C. Yang, H. Yang, and V. Blum
    'ELSI: A unified software interface for Kohn-Sham electronic structure solvers'
    Computer Physics Communications 222, 267-285 (2018).
    http://dx.doi.org/10.1016/j.cpc.2017.09.007


  For the real-space grid partitioning and parallelization used in this calculation, please cite:

    Ville Havu, Volker Blum, Paula Havu, and Matthias Scheffler,
    'Efficient O(N) integration for all-electron electronic structure calculation'
    'using numerically tabulated basis functions'
    Journal of Computational Physics 228, 8367-8379 (2009).
    http://dx.doi.org/10.1016/j.jcp.2009.08.008

  Of course, there are many other important community references, e.g., those cited in the
  above references. Our list is limited to references that describe implementations in the
  FHI-aims code. The reason is purely practical (length of this list) - please credit others as well.

------------------------------------------------------------
          Leaving FHI-aims.
          Date     :  20220517, Time     :  121805.532

          Computational steps:
          | Number of self-consistency cycles          :           14
          | Number of SCF (re)initializations          :            1

          Detailed time accounting                     :  max(cpu_time)    wall_clock(cpu1)
          | Total time                                  :        2.015 s           6.401 s
          | Preparation time                            :        0.186 s           0.186 s
          | Boundary condition initalization            :        0.000 s           0.000 s
          | Grid partitioning                           :        0.039 s           0.039 s
          | Preloading free-atom quantities on grid     :        0.016 s           0.016 s
          | Free-atom superposition energy              :        0.005 s           0.005 s
          | Total time for integrations                 :        0.503 s           0.504 s
          | Total time for solution of K.-S. equations  :        0.069 s           0.070 s
          | Total time for density & force components   :        0.689 s           0.691 s
          | Total time for mixing                       :        0.065 s           0.033 s
          | Total time for Hartree multipole update     :        0.018 s           0.018 s
          | Total time for Hartree multipole sum        :        0.300 s           0.300 s
          | Total time for total energy evaluation      :        0.002 s           0.001 s
          | Total time NSC force correction             :        0.062 s           0.062 s
          | Total time for scaled ZORA corrections      :        0.000 s           0.000 s

          Partial memory accounting:
          | Residual value for overall tracked memory usage across tasks:     0.000000 MB (should be 0.000000 MB)
          | Peak values for overall tracked memory usage:
          |   Minimum:        2.759 MB (on task 23 after allocating hessian_basis_wave)
          |   Maximum:        2.873 MB (on task 12 after allocating hessian_basis_wave)
          |   Average:        2.813 MB
          | Largest tracked array allocation:
          |   Minimum:        1.336 MB (hessian_basis_wave on task 10)
          |   Maximum:        1.401 MB (hessian_basis_wave on task 12)
          |   Average:        1.368 MB
          Note:  These values currently only include a subset of arrays which are explicitly tracked.
          The "true" memory usage will be greater.

          Have a nice day.
------------------------------------------------------------
