********************************************************************************
*                       GENERAL UTILITY LATTICE PROGRAM                        *
*                                 Julian Gale                                  *
*                       Curtin Institute for Computation                       *
*                           Department of Chemistry                            *
*                    Curtin University, Western Australia                      *
********************************************************************************
* Version = 5.1.1 * Last modified =  11th January 2019                         *
********************************************************************************
*  single       - perform a single point run                                   *
*  phonon       - calculate phonons for final geometry                         *
*  eigenvectors - output phonon eigenvectors                                   *
********************************************************************************

  Job Started  at 10:33.41 17th May        2022                               

  Number of CPUs =     1

  Host name      = login04                                 


  Total number of configurations input =      1

********************************************************************************
*  Input for Configuration =   1                                               *
********************************************************************************

  Formula = Al3F9                                                       

  Number of irreducible atoms/shells =      21


  Total number atoms/shells =      21

  Dimensionality = 0               :  Cluster


  Charge on cluster =  -0.000000


  Initial cluster dipoles : x =      0.136211 e.Angs
                            y =     -0.707565 e.Angs
                            z =     -0.007067 e.Angs

  Temperature of configuration =  0.000     K 

  Symmetry number =      1

  Cartesian coordinates of cluster :

--------------------------------------------------------------------------------
   No.  Atomic       x           y          z         Charge      Occupancy
        Label      (Angs)      (Angs)     (Angs)        (e)         (Frac)  
--------------------------------------------------------------------------------
      1 Al    c     -1.7143      2.5696     -1.2408     3.00000    1.000000    
      2 Al    c     -0.5233     -0.0081     -2.3348     3.00000    1.000000    
      3 Al    c     -2.1862     -0.3465     -0.5101     3.00000    1.000000    
      4 F     c     -0.8727      3.8454     -0.2372     0.59000    1.000000    
      5 F     c     -3.0494      3.0731     -2.3641     0.59000    1.000000    
      6 F     c     -1.4804     -1.6694     -1.8136     0.59000    1.000000    
      7 F     c     -2.3984      1.4486      0.1219     0.59000    1.000000    
      8 F     c     -3.2736     -1.2848      0.5908     0.59000    1.000000    
      9 F     c      0.6038     -0.4959     -3.6639     0.59000    1.000000    
     10 F     c     -0.2541      1.8849     -2.2310     0.59000    1.000000    
     11 F     c     -2.4277      0.5533     -2.2648     0.59000    1.000000    
     12 F     c     -0.2552     -0.0023     -0.3879     0.59000    1.000000    
     13 F     s     -0.8727      3.8454     -0.2372    -1.59000    1.000000    
     14 F     s     -3.0494      3.0731     -2.3641    -1.59000    1.000000    
     15 F     s     -1.4804     -1.6694     -1.8136    -1.59000    1.000000    
     16 F     s     -2.3984      1.4486      0.1219    -1.59000    1.000000    
     17 F     s     -3.2736     -1.2848      0.5908    -1.59000    1.000000    
     18 F     s      0.6038     -0.4959     -3.6639    -1.59000    1.000000    
     19 F     s     -0.2541      1.8849     -2.2310    -1.59000    1.000000    
     20 F     s     -2.4277      0.5533     -2.2648    -1.59000    1.000000    
     21 F     s     -0.2552     -0.0023     -0.3879    -1.59000    1.000000    
--------------------------------------------------------------------------------


  Brillouin zone sampling points :

--------------------------------------------------------------------------------
  Point number          x          y          z            Weight
--------------------------------------------------------------------------------
        1           0.000000   0.000000   0.000000     1.00000000
--------------------------------------------------------------------------------


********************************************************************************
*  General input information                                                   *
********************************************************************************

  Species output for all configurations : 

--------------------------------------------------------------------------------
  Species    Type    Atomic    Atomic    Charge       Radii (Angs)     Library
                     Number     Mass       (e)     Cova   Ionic  VDW   Symbol
--------------------------------------------------------------------------------
    Al       Core       13      26.98   3.000000   1.350  0.000  2.050          
    F        Core        9      19.00   0.590000   0.710  0.000  1.300          
    F        Shell       9       0.00  -1.590000   0.710  0.000  1.300          
--------------------------------------------------------------------------------


  Accuracy factor for short range sums = 12.000

  Time limit = Infinity

  Maximum range for interatomic potentials =    100000.000000 Angstroms

  General interatomic potentials :

--------------------------------------------------------------------------------
Atom  Types   Potential      Parameter       Value         Units   Cutoffs(Ang)
  1     2                                                            Min /  Max 
--------------------------------------------------------------------------------
Al   c F    s Buckingham    Buckingham A     3760.0008    eV        0.000 10.000
                            Buckingham rho  0.22200000    Ang       
                            Buckingham C     0.0000000    eV*Ang^6  
--------------------------------------------------------------------------------
F    s F    s Buck 4 range  Buck4 A          1127.7000    eV        0.000 12.000
                            Buck4 rho       0.27530000    Ang       
                            Buck4 C          15.830000    eV*Ang^6  
                            Buck4 minimum    2.7900000    Ang       
--------------------------------------------------------------------------------
F    c F    s Spring (c-s)  Spring k 2       20.770000    eV*Ang^-2 0.000  0.800
                            Spring k 4       0.0000000    eV*Ang^-4 
--------------------------------------------------------------------------------

********************************************************************************
*  Output for configuration   1                                                *
********************************************************************************


  Components of energy : 

--------------------------------------------------------------------------------
  Interatomic potentials     =          10.01666976 eV    
  Monopole - monopole (real) =        -177.44997639 eV    
--------------------------------------------------------------------------------
  Total lattice energy       =        -167.43330663 eV    
--------------------------------------------------------------------------------
  Total lattice energy       =          -16154.7546 kJ/mol
--------------------------------------------------------------------------------

  Born effective charge tensors : 

-------------------------------------------------------------------------------
  Atom             x           y             z
-------------------------------------------------------------------------------
    1 Al    x       2.0264      0.0900      0.0644
            y       0.0811      2.3111      0.1364
            z       0.0628      0.1445      2.0580
-------------------------------------------------------------------------------
    2 Al    x       2.1056      0.0130     -0.2589
            y       0.1134      2.5552     -0.0748
            z      -0.2645      0.0459      2.1507
-------------------------------------------------------------------------------
    3 Al    x       2.1102      0.0225     -0.2818
            y      -0.0893      2.5158      0.1440
            z      -0.2784      0.0337      2.1857
-------------------------------------------------------------------------------
    4 F     x      -0.6266     -0.2027     -0.1513
            y      -0.2601     -1.0109     -0.3314
            z      -0.1619     -0.2791     -0.7012
-------------------------------------------------------------------------------
    5 F     x      -0.8321      0.1889     -0.2732
            y       0.2593     -0.6950      0.1990
            z      -0.2602      0.1348     -0.7059
-------------------------------------------------------------------------------
    6 F     x      -0.5696     -0.1108      0.1838
            y      -0.0906     -1.2390     -0.1652
            z       0.1875     -0.1835     -0.6569
-------------------------------------------------------------------------------
    7 F     x      -0.4164     -0.0280      0.1838
            y      -0.0452     -1.0067      0.0371
            z       0.1722      0.0287     -0.6276
-------------------------------------------------------------------------------
    8 F     x      -0.7583     -0.2246      0.2762
            y      -0.2476     -0.7174      0.2600
            z       0.2784      0.2457     -0.7714
-------------------------------------------------------------------------------
    9 F     x      -0.7904      0.1371      0.3533
            y       0.1498     -0.5616     -0.1676
            z       0.3493     -0.1440     -0.8950
-------------------------------------------------------------------------------
   10 F     x      -0.6097      0.0567      0.2128
            y       0.0614     -0.9598     -0.1171
            z       0.2220     -0.0973     -0.4812
-------------------------------------------------------------------------------
   11 F     x      -0.7516      0.0744     -0.1068
            y       0.0963     -0.7094      0.0711
            z      -0.1027      0.0511     -0.7034
-------------------------------------------------------------------------------
   12 F     x      -0.8875     -0.0166     -0.2023
            y      -0.0286     -0.4824      0.0085
            z      -0.2045      0.0195     -0.8517
-------------------------------------------------------------------------------




  Moment of inertia tensor (10^-46 x kgm^2): 

-------------------------------------------------------------------------------
                x           y           z           Principal axis system
-------------------------------------------------------------------------------
       x        172.93        3.88       27.26          112.743223
       y          3.88      113.34       -2.11          143.806484
       z         27.26       -2.11      168.25          197.971810
-------------------------------------------------------------------------------
  Centre of mass (Ang) =    -1.484880     0.791722    -1.361349
-------------------------------------------------------------------------------


  Vibrational Frequency Calculation : 

--------------------------------------------------------------------------------

  Frequencies (cm-1) and Eigenvectors : 

  Frequency    -360.0081 -318.2012 -197.1233   -0.0000   -0.0000    0.0000
  IR Intensity    0.0010    0.0040    0.0045    0.0000    0.0000    0.0000
     in X         0.0005    0.0018    0.0018    0.0000    0.0000    0.0000
     in Y         0.0000    0.0001    0.0016    0.0000    0.0000    0.0000
     in Z         0.0005    0.0022    0.0010    0.0000    0.0000    0.0000
  Raman Intsty    0.0000    0.0000    0.3022    0.0000    0.0000    0.0000

     1 x      -0.125240 -0.250332  0.429719 -0.069482  0.319079  0.021211
     1 y      -0.025482 -0.050934  0.153562 -0.004752 -0.022734  0.326419
     1 z       0.137427  0.274691  0.420086  0.319748  0.068998  0.009461
     2 x       0.521555 -0.114758 -0.278948 -0.069482  0.319079  0.021211
     2 y       0.234234  0.566188 -0.051434 -0.004752 -0.022734  0.326419
     2 z       0.380125 -0.286084 -0.186039  0.319748  0.068998  0.009461
     3 x      -0.386084  0.394754 -0.202999 -0.069482  0.319079  0.021211
     3 y      -0.206671 -0.509219 -0.035981 -0.004752 -0.022734  0.326419
     3 z      -0.528778 -0.021159 -0.269378  0.319748  0.068998  0.009461
     4 x      -0.000862 -0.008977  0.205620 -0.058308  0.267765  0.017800
     4 y      -0.000175 -0.001827  0.185476 -0.003988 -0.019078  0.273925
     4 z       0.000946  0.009851  0.221777  0.268326  0.057902  0.007939
     5 x      -0.005596 -0.023513  0.252525 -0.058308  0.267765  0.017800
     5 y      -0.001139 -0.004784 -0.147872 -0.003988 -0.019078  0.273925
     5 z       0.006140  0.025801  0.202712  0.268326  0.057902  0.007939
     6 x      -0.049488 -0.065710 -0.027614 -0.058308  0.267765  0.017800
     6 y      -0.010069 -0.013370 -0.171573 -0.003988 -0.019078  0.273925
     6 z       0.054304  0.072104 -0.056978  0.268326  0.057902  0.007939
     7 x       0.024696 -0.007715 -0.001039 -0.058308  0.267765  0.017800
     7 y      -0.021657 -0.041026  0.079498 -0.003988 -0.019078  0.273925
     7 z      -0.003400 -0.027546 -0.036224  0.268326  0.057902  0.007939
     8 x      -0.051563  0.042804 -0.060591 -0.058308  0.267765  0.017800
     8 y      -0.007140 -0.040526  0.031053 -0.003988 -0.019078  0.273925
     8 z      -0.045685  0.022309 -0.084287  0.268326  0.057902  0.007939
     9 x       0.048993 -0.033827 -0.094629 -0.058308  0.267765  0.017800
     9 y       0.006617  0.042352  0.024128 -0.003988 -0.019078  0.273925
     9 z       0.048505 -0.032159 -0.046937  0.268326  0.057902  0.007939
    10 x      -0.003302  0.020330 -0.049924 -0.058308  0.267765  0.017800
    10 y       0.026010  0.043592  0.069552 -0.003988 -0.019078  0.273925
    10 z      -0.020077  0.013703  0.017418  0.268326  0.057902  0.007939
    11 x      -0.017291  0.042480 -0.025733 -0.058308  0.267765  0.017800
    11 y      -0.003518  0.008643 -0.152053 -0.003988 -0.019078  0.273925
    11 z       0.018973 -0.046613 -0.051645  0.268326  0.057902  0.007939
    12 x       0.042220 -0.001221 -0.136377 -0.058308  0.267765  0.017800
    12 y       0.008590 -0.000248  0.002967 -0.003988 -0.019078  0.273925
    12 z      -0.046329  0.001340 -0.123733  0.268326  0.057902  0.007939


  Frequency      40.4329  121.2758  140.7774  147.3248  148.3393  154.0464
  IR Intensity    0.0034    0.0194    0.0007    0.0010    0.0009    0.0006
     in X         0.0015    0.0014    0.0000    0.0000    0.0004    0.0003
     in Y         0.0001    0.0148    0.0007    0.0009    0.0000    0.0000
     in Z         0.0018    0.0032    0.0001    0.0001    0.0005    0.0003
  Raman Intsty    0.0000    0.2715    0.5037    0.5167    0.0000    0.0000

     1 x      -0.284945 -0.050299 -0.030406 -0.003297 -0.030680 -0.085070
     1 y      -0.057976 -0.029658  0.123917  0.094035 -0.006242 -0.017309
     1 z       0.312672 -0.051337 -0.004733  0.014431  0.033665  0.093348
     2 x       0.156691  0.048038 -0.018475 -0.007798 -0.005421  0.016281
     2 y      -0.129481  0.056583 -0.057917 -0.043404  0.015975  0.020287
     2 z      -0.175700  0.044493  0.020635  0.026958  0.012430 -0.025832
     3 x       0.131125  0.038483  0.028644  0.033361 -0.008661  0.027143
     3 y       0.188042  0.054639 -0.048330 -0.035029 -0.018840 -0.011451
     3 z      -0.140124  0.054978 -0.031068 -0.018206  0.003022 -0.021818
     4 x      -0.094132 -0.096200 -0.382121 -0.118679 -0.214707  0.242763
     4 y      -0.019153  0.044737  0.593709  0.247554 -0.043686  0.049393
     4 z       0.103292 -0.079373 -0.238148 -0.062254  0.235600 -0.266385
     5 x      -0.187892 -0.110149 -0.055720  0.000529  0.458877  0.310358
     5 y      -0.038229 -0.381473 -0.153143 -0.085042  0.093365  0.063145
     5 z       0.206175 -0.171114 -0.079176 -0.015285 -0.503530 -0.340559
     6 x       0.342728 -0.029859  0.048848  0.291521  0.095226 -0.024808
     6 y       0.069733 -0.445592 -0.068688  0.036392  0.019375 -0.005048
     6 z      -0.376078 -0.109833  0.031780  0.272418 -0.104492  0.027226
     7 x      -0.061909 -0.135687  0.342366 -0.258059 -0.324369  0.029686
     7 y       0.162004  0.153206  0.011107  0.025472  0.029566  0.177850
     7 z       0.179757  0.095534 -0.003346 -0.239521 -0.076513  0.093099
     8 x       0.143608  0.096461 -0.028579  0.289552 -0.055119 -0.081186
     8 y       0.126242  0.184974  0.042105 -0.171605 -0.167505  0.429492
     8 z      -0.184912  0.199487 -0.036094  0.114658 -0.182790  0.231643
     9 x       0.187901  0.171992 -0.046031  0.174815  0.154320 -0.139689
     9 y      -0.058791  0.200342  0.038554 -0.194952  0.187689 -0.474430
     9 z      -0.178856  0.116605 -0.016943  0.240563  0.073936  0.010720
    10 x      -0.139559  0.050772  0.032146 -0.266923  0.115598 -0.062005
    10 y      -0.202996  0.191145 -0.052012  0.023668 -0.072044 -0.184425
    10 z       0.041316 -0.109069  0.337062 -0.229795  0.305597 -0.057635
    11 x      -0.116881  0.288392 -0.029057 -0.160232 -0.035636 -0.134805
    11 y      -0.023781 -0.107928 -0.132584 -0.235176 -0.007251 -0.027429
    11 z       0.128254  0.242806 -0.051064 -0.189630  0.039103  0.147923
    12 x      -0.077286 -0.278887  0.142264  0.020944 -0.140852 -0.090687
    12 y      -0.015725  0.063395 -0.300106  0.335096 -0.028658 -0.018451
    12 z       0.084808 -0.242401  0.074003  0.081221  0.154558  0.099513


  Frequency     156.7984  158.7730  162.9843  163.8407  168.5599  205.2826
  IR Intensity    0.0005    0.0004    0.0015    0.0042    0.0009    0.0108
     in X         0.0000    0.0002    0.0005    0.0019    0.0004    0.0056
     in Y         0.0005    0.0000    0.0007    0.0001    0.0000    0.0015
     in Z         0.0000    0.0002    0.0003    0.0023    0.0005    0.0037
  Raman Intsty    0.0402    0.0000    0.3534    0.0000    0.0000    0.1185

     1 x      -0.004549 -0.019896  0.027404  0.012788 -0.014320  0.013519
     1 y       0.075042 -0.004048 -0.002077  0.002602 -0.002914 -0.049638
     1 z       0.009770  0.021832  0.024588 -0.014033  0.015713  0.003117
     2 x      -0.031933  0.008229  0.001120  0.044765 -0.092234  0.095070
     2 y      -0.039432 -0.011029  0.002596 -0.023584  0.028455 -0.076312
     2 z      -0.006762  0.030550  0.032919 -0.078275 -0.021870  0.015225
     3 x      -0.002953 -0.032756  0.031826  0.067333  0.036615  0.039104
     3 y      -0.033536  0.006038  0.008844  0.046392 -0.039772 -0.087700
     3 z      -0.038562 -0.003637 -0.000775 -0.044732  0.082902  0.076638
     4 x      -0.025244 -0.232767 -0.109949 -0.463925  0.000228 -0.180664
     4 y       0.133163 -0.047358  0.165365 -0.094395  0.000047  0.160919
     4 z       0.001684  0.255416 -0.069532  0.509071 -0.000251 -0.134805
     5 x       0.025464  0.202449 -0.019465  0.003856  0.095189  0.171792
     5 y       0.310566  0.041193 -0.051227  0.000784  0.019367  0.621466
     5 z       0.080790 -0.222148 -0.027236 -0.004231 -0.104452  0.271791
     6 x      -0.417333  0.016372  0.035089 -0.041897 -0.008402  0.206189
     6 y       0.010101  0.003332 -0.016986 -0.008525 -0.001709 -0.374304
     6 z      -0.378451 -0.017967  0.028828  0.045975  0.009220  0.118500
     7 x       0.032082  0.294271 -0.027956  0.071185  0.380796 -0.192517
     7 y       0.027263 -0.041209  0.087840 -0.077690 -0.024118 -0.079489
     7 z      -0.003004  0.204154  0.202059 -0.105205  0.249812 -0.009937
     8 x       0.379962  0.368878  0.014210 -0.159948 -0.362275 -0.163342
     8 y      -0.209732 -0.158514 -0.378906  0.379890 -0.071508  0.044117
     8 z       0.165457  0.252696 -0.382089  0.035209 -0.341249  0.013293
     9 x       0.241258 -0.316025 -0.303210  0.051922  0.360164 -0.012860
     9 y      -0.237961  0.169261 -0.443497 -0.401862  0.071078  0.074734
     9 z       0.317664 -0.310689 -0.033773  0.083331  0.343563 -0.151832
    10 x      -0.004367 -0.239167  0.178511  0.080958 -0.290154 -0.016353
    10 y       0.019845  0.052422  0.129849  0.108645  0.042561 -0.043645
    10 z       0.036996 -0.264619 -0.024492 -0.061744 -0.349274 -0.203242
    11 x      -0.051165 -0.145945  0.249679  0.170580 -0.125484  0.107220
    11 y       0.154191 -0.029693  0.221012  0.034706 -0.025532 -0.017428
    11 z      -0.018038  0.160148  0.268514 -0.187182  0.137695  0.094480
    12 x      -0.133664  0.104871 -0.088823  0.138449  0.033280 -0.095461
    12 y      -0.209907  0.021338  0.275392  0.028168  0.006771 -0.131777
    12 z      -0.160731 -0.115077 -0.029883 -0.151920 -0.036518 -0.111430


  Frequency     220.1922  234.7465  257.7797  269.8059  274.8105  297.9138
  IR Intensity    0.0178    0.0031    0.0005    0.0551    0.0007    0.1514
     in X         0.0000    0.0000    0.0002    0.0296    0.0003    0.0000
     in Y         0.0170    0.0030    0.0000    0.0002    0.0000    0.1461
     in Z         0.0008    0.0001    0.0002    0.0253    0.0004    0.0053
  Raman Intsty    0.1801    0.0235    0.0000    0.3012    0.0000    0.3890

     1 x      -0.175421  0.045719 -0.073477 -0.034827 -0.062818 -0.024226
     1 y       0.239386  0.094438 -0.014950  0.049499 -0.012781  0.051077
     1 z      -0.115477  0.059175  0.080627 -0.022560  0.068930 -0.012605
     2 x      -0.018948  0.054630  0.069191  0.224054 -0.014497 -0.019975
     2 y       0.051616  0.043347 -0.123921 -0.032766 -0.051733 -0.305050
     2 z       0.087135  0.078113 -0.098841  0.233138 -0.053140 -0.009798
     3 x       0.073735  0.074461  0.066581  0.258289  0.044146  0.043522
     3 y       0.070474  0.047382  0.151546 -0.025801  0.057765 -0.292130
     3 z      -0.014568  0.056353 -0.050142  0.195572  0.020605 -0.079473
     4 x       0.281349  0.073813 -0.032510  0.068918  0.089364  0.215602
     4 y      -0.176657  0.123574 -0.006615  0.094154  0.018182  0.237750
     4 z       0.223643  0.090181  0.035673  0.080264 -0.098060  0.240565
     5 x      -0.205760 -0.001115  0.016500  0.068078  0.035280 -0.246474
     5 y       0.198405 -0.189381  0.003357  0.066243  0.007178  0.078971
     5 z      -0.150725 -0.036132 -0.018105  0.074324 -0.038713 -0.209975
     6 x       0.242222 -0.063557 -0.499294 -0.372104 -0.055075 -0.019105
     6 y      -0.329111  0.125308 -0.101589 -0.079838 -0.011205 -0.103273
     6 z       0.159718 -0.034686  0.547878 -0.353911  0.060435 -0.036559
     7 x       0.165548 -0.361896 -0.021751 -0.010526 -0.277410  0.099198
     7 y       0.230740  0.068756  0.279517  0.043051 -0.196878 -0.090047
     7 z      -0.121687 -0.179642  0.062871 -0.121059  0.096969 -0.267691
     8 x       0.125004 -0.006712  0.199083 -0.087117 -0.007959 -0.126312
     8 y      -0.046064 -0.002311  0.014462  0.047927  0.050168  0.008196
     8 z      -0.209366 -0.099536 -0.237220 -0.184627 -0.060943  0.141181
     9 x      -0.182609 -0.097595  0.212702 -0.198655  0.069524  0.122688
     9 y      -0.108653 -0.020803  0.069322  0.025233 -0.037642  0.058859
     9 z       0.128181  0.000192 -0.214636 -0.062235 -0.006613 -0.132050
    10 x      -0.142647 -0.227596 -0.008415 -0.127270 -0.100123 -0.234467
    10 y       0.168033  0.096081 -0.285655  0.019298  0.120063 -0.157934
    10 z       0.216498 -0.327011 -0.029770  0.007045  0.317301  0.098440
    11 x      -0.059344  0.183892  0.059451  0.034494 -0.221811  0.163901
    11 y      -0.118201  0.141603  0.012096 -0.493767 -0.045130  0.353811
    11 z      -0.075998  0.193841 -0.065236 -0.060119  0.243395  0.214967
    12 x      -0.080011  0.292458 -0.000001  0.090902  0.507735  0.025778
    12 y      -0.249242 -0.563480  0.000001  0.288505  0.103306  0.264421
    12 z      -0.119131  0.162041  0.000001  0.136335 -0.557142  0.072522


  Frequency     300.9675  303.5259  341.0372  356.0459  358.3888  365.8734
  IR Intensity    0.0122    0.0619    0.1955    0.0045    0.1794    0.1300
     in X         0.0054    0.0005    0.0584    0.0020    0.0162    0.0020
     in Y         0.0002    0.0573    0.1122    0.0001    0.1297    0.1273
     in Z         0.0065    0.0041    0.0250    0.0024    0.0335    0.0006
  Raman Intsty    0.0000    5.3694    0.0022    0.0000    1.0001    5.9418

     1 x       0.148100  0.055073 -0.004026 -0.001986  0.002860 -0.013644
     1 y       0.030132 -0.182997 -0.088446 -0.000405 -0.030227  0.161719
     1 z      -0.162512  0.016259 -0.020069  0.002179 -0.002999  0.017551
     2 x      -0.011567 -0.175353  0.169250  0.004943 -0.164188  0.016645
     2 y       0.098576 -0.113963 -0.151311 -0.031560 -0.197436  0.144201
     2 z      -0.018205  0.079753  0.211407 -0.006267 -0.120033 -0.050441
     3 x       0.036922  0.079428  0.252542 -0.000140 -0.099484 -0.073611
     3 y      -0.093420 -0.062124 -0.134364  0.032529 -0.184273  0.125837
     3 z      -0.009619 -0.199820  0.120010  0.000982 -0.191034  0.048598
     4 x      -0.111636 -0.131064  0.168302  0.031911  0.094027  0.070178
     4 y      -0.022714 -0.132084  0.316668  0.006495  0.110133  0.089001
     4 z       0.122500 -0.143934  0.212094 -0.035011  0.106112  0.080457
     5 x      -0.105191  0.062421 -0.026721  0.005018 -0.322468 -0.086502
     5 y      -0.021402  0.038061 -0.125481  0.001030  0.289449 -0.054091
     5 z       0.115426  0.063942 -0.047618 -0.005521 -0.240201 -0.088861
     6 x      -0.004619  0.001982  0.044880 -0.103541 -0.005325 -0.037546
     6 y      -0.000941 -0.078741  0.187060 -0.021062  0.185811 -0.547270
     6 z       0.005068 -0.012794  0.075585  0.113617  0.029595 -0.135692
     7 x       0.061600  0.026364 -0.106761  0.065177 -0.139113 -0.113160
     7 y       0.284487 -0.119690 -0.134660 -0.462247  0.035673 -0.187632
     7 z      -0.353691 -0.108367  0.163377 -0.143047  0.340109  0.215703
     8 x      -0.039430  0.346663  0.015315  0.208333  0.077382  0.027453
     8 y      -0.014748  0.357497  0.131934  0.199105  0.093350 -0.010987
     8 z      -0.003002 -0.295079 -0.128074 -0.200522  0.005245 -0.015758
     9 x       0.004570 -0.315282 -0.147407  0.209287 -0.003341 -0.010408
     9 y       0.007658  0.222814  0.098826 -0.114131  0.076933 -0.018691
     9 z       0.041256  0.431279  0.050482 -0.257731  0.093825  0.025787
    10 x       0.390496 -0.081343  0.172408  0.048928  0.310729  0.232448
    10 y      -0.192503 -0.141600 -0.077860  0.485468  0.127176 -0.117314
    10 z      -0.142401  0.009818 -0.142958  0.017848 -0.153510 -0.163536
    11 x      -0.447531  0.059890 -0.283154 -0.214402  0.138854 -0.296472
    11 y      -0.091055  0.177947  0.152089 -0.043634 -0.393448  0.244697
    11 z       0.491083  0.087570 -0.229843  0.235269  0.053575 -0.224808
    12 x       0.045045  0.079049 -0.334685 -0.254067  0.160049  0.298151
    12 y       0.009167  0.103693 -0.102759 -0.051696 -0.034199  0.087789
    12 z      -0.049426  0.091267 -0.324059  0.278799  0.139502  0.287989


  Frequency     397.5079  413.4821  448.6472  475.6765  485.0568  645.7465
  IR Intensity    0.3209    0.1708    0.4620    0.6727    0.0941    0.0145
     in X         0.0193    0.0760    0.1996    0.2996    0.0322    0.0002
     in Y         0.3009    0.0031    0.0582    0.0124    0.0467    0.0142
     in Z         0.0006    0.0916    0.2042    0.3607    0.0152    0.0001
  Raman Intsty    1.2375    0.0000    0.3299    0.0000    0.8838    3.7932

     1 x      -0.063743  0.439953  0.412658  0.065722 -0.306358  0.008611
     1 y       0.128414  0.089515  0.335068  0.013375  0.714646 -0.201371
     1 z      -0.034284 -0.482764  0.438193 -0.072119 -0.146678 -0.029491
     2 x      -0.035593  0.035625  0.093249  0.353934 -0.118591 -0.430608
     2 y       0.343790  0.245687 -0.021581 -0.120676 -0.229110  0.104578
     2 z      -0.069402 -0.008104  0.158746 -0.404939  0.094591  0.485920
     3 x      -0.134023  0.048551  0.169256  0.335206  0.121000  0.408884
     3 y       0.323761 -0.228564 -0.006116  0.260890 -0.180363  0.275385
     3 z       0.038606 -0.084262  0.075344 -0.351261 -0.168315 -0.435262
     4 x       0.113305 -0.075836 -0.216487 -0.009795 -0.029116  0.013066
     4 y       0.152936 -0.015431 -0.286572 -0.001994 -0.173001  0.036114
     4 z       0.131615  0.083214 -0.250426  0.010748 -0.058613  0.018603
     5 x      -0.066286 -0.078111 -0.342573 -0.014333  0.239678 -0.017002
     5 y       0.040616 -0.015893  0.108517 -0.002917 -0.140328  0.036040
     5 z      -0.052876  0.085713 -0.292073  0.015730  0.192403 -0.008811
     6 x       0.020222  0.009654 -0.021999 -0.112180  0.002456 -0.001646
     6 y       0.090535  0.001964  0.043317 -0.022825  0.066211 -0.047743
     6 z       0.035216 -0.010593 -0.012016  0.123097  0.014514 -0.010353
     7 x       0.046015 -0.180067 -0.019520 -0.035390 -0.041079 -0.017702
     7 y      -0.469803  0.033053 -0.102217 -0.129623 -0.109030 -0.026767
     7 z      -0.079787  0.367395 -0.033907  0.053925  0.118804  0.024673
     8 x       0.074458  0.080644 -0.045122 -0.218217 -0.020751 -0.122079
     8 y      -0.009468  0.131944 -0.012646 -0.184150  0.021286 -0.104052
     8 z      -0.048217 -0.070206 -0.003876  0.221432  0.031200  0.123723
     9 x      -0.037268  0.083711 -0.006429 -0.225932  0.024369  0.126432
     9 y      -0.032201 -0.098503 -0.004773  0.093782  0.030465 -0.053489
     9 z       0.074381 -0.110142 -0.046333  0.265937 -0.018311 -0.148970
    10 x       0.012186 -0.333398 -0.016749 -0.072324  0.131381  0.027030
    10 y      -0.476686 -0.137521 -0.101653  0.107706 -0.073941 -0.017665
    10 z      -0.042668  0.196034 -0.036948  0.064271 -0.070438 -0.024411
    11 x       0.248996 -0.049531 -0.043658 -0.094654  0.074119 -0.017380
    11 y      -0.232501 -0.010077  0.005446 -0.019259 -0.002188 -0.019581
    11 z       0.183805  0.054350 -0.038776  0.103865  0.067139 -0.019470
    12 x      -0.133549 -0.081637 -0.092013 -0.116697 -0.018859  0.024909
    12 y      -0.011931 -0.016610 -0.015694 -0.023744  0.016872 -0.015675
    12 z      -0.123917  0.089581 -0.086763  0.128052 -0.014059  0.019794




--------------------------------------------------------------------------------
  Vibrational properties (for cluster):  Temperature  =       0.000 K
--------------------------------------------------------------------------------
  Zero point energy            =        0.509308 eV
--------------------------------------------------------------------------------

  Phonon density of states : 

--------------------------------------------------------------------------------
 Frequency (cm-1) Density of States                                             
--------------------------------------------------------------------------------
    0.00000 |********************                                          0.032
   10.08979 |                                                              0.000
   20.17958 |                                                              0.000
   30.26937 |                                                              0.000
   40.35916 |********************                                          0.032
   50.44895 |                                                              0.000
   60.53874 |                                                              0.000
   70.62853 |                                                              0.000
   80.71832 |                                                              0.000
   90.80810 |                                                              0.000
  100.89789 |                                                              0.000
  110.98768 |                                                              0.000
  121.07747 |********************                                          0.032
  131.16726 |********************                                          0.032
  141.25705 |****************************************                      0.065
  151.34684 |************************************************************  0.097
  161.43663 |************************************************************  0.097
  171.52642 |                                                              0.000
  181.61621 |                                                              0.000
  191.70600 |                                                              0.000
  201.79579 |********************                                          0.032
  211.88558 |********************                                          0.032
  221.97537 |                                                              0.000
  232.06516 |********************                                          0.032
  242.15495 |                                                              0.000
  252.24473 |********************                                          0.032
  262.33452 |********************                                          0.032
  272.42431 |********************                                          0.032
  282.51410 |                                                              0.000
  292.60389 |****************************************                      0.065
  302.69368 |********************                                          0.032
  312.78347 |                                                              0.000
  322.87326 |                                                              0.000
  332.96305 |********************                                          0.032
  343.05284 |                                                              0.000
  353.14263 |****************************************                      0.065
  363.23242 |********************                                          0.032
  373.32221 |                                                              0.000
  383.41200 |                                                              0.000
  393.50179 |********************                                          0.032
  403.59158 |********************                                          0.032
  413.68137 |                                                              0.000
  423.77115 |                                                              0.000
  433.86094 |                                                              0.000
  443.95073 |********************                                          0.032
  454.04052 |                                                              0.000
  464.13031 |                                                              0.000
  474.22010 |********************                                          0.032
  484.30989 |********************                                          0.032
  494.39968 |                                                              0.000
  504.48947 |                                                              0.000
  514.57926 |                                                              0.000
  524.66905 |                                                              0.000
  534.75884 |                                                              0.000
  544.84863 |                                                              0.000
  554.93842 |                                                              0.000
  565.02821 |                                                              0.000
  575.11800 |                                                              0.000
  585.20778 |                                                              0.000
  595.29757 |                                                              0.000
  605.38736 |                                                              0.000
  615.47715 |                                                              0.000
  625.56694 |                                                              0.000
  635.65673 |********************                                          0.032
--------------------------------------------------------------------------------



  XYZ File written as 005/1/sp_mod_40/sp_mod_40_eig.xyz


  Time to end of properties =       0.0120 seconds


  Peak dynamic memory used =       0.64 MB 


  Timing analysis for GULP :

--------------------------------------------------------------------------------
  Task / Subroutine                                          Time (Seconds)
--------------------------------------------------------------------------------
  Calculation of phonons                                          0.0037
--------------------------------------------------------------------------------
  Total CPU time                                                  0.0120
--------------------------------------------------------------------------------


  Job Finished at 10:33.41 17th May        2022                               

