12
Properties=species:S:1:pos:R:3:forces:R:3 energy=-186.55869954 pbc="F F F"
Al    -0.373349938    1.10949506    -1.837731136    0.037304    -0.074671    -0.017492
Al    -0.44266141400000003    1.025187853    1.290358736    0.008279    -0.05957    -0.043252
Al    -3.0154513190000003    0.456752689    -1.853014342    -0.010627    0.044873    0.039749
F    -3.474297461    0.10860180800000002    -3.610884808    -0.015652    -0.000568    -0.048798
F    -1.343617757    -0.535308301    -1.7256043449999998    0.047661    -0.003979    -0.005878
F    -1.977400187    2.095188803    -2.014575583    -0.052047    0.036731    -0.002284
F    -2.123625925    0.9705426389999999    0.457653324    -0.059525    -0.02098    -0.029034
F    0.559939327    1.376876243    -0.300074211    0.003208    0.002717    -0.004327
F    -0.07043127500000002    2.606231897    2.271119747    -0.000457    0.1527    0.04869
F    0.25071121500000004    -0.6491965580000001    1.8175186450000003    0.054149    -0.072982    0.058186
F    -4.330325792    0.36635556999999996    -0.5933340650000001    -0.013506    -0.009321    0.008239
F    0.751897627    1.277234637    -3.244810929    0.001213    0.00505    -0.003798
