 12
 energy=8.3945050466929487 cutoff=4.00000000 nneightol=1.20000000 pbc="T T T" Lattice="15.15274714       0.00000000       0.00000000       0.00000000      13.31854686       0.00000000       0.00000000       0.00000000      17.31110877" Properties=species:S:1:pos:R:3:forces:R:3:Z:I:1:map_shift:I:3:n_neighb:I:1:force:R:3
 Al              1.59226768      0.19321632      2.41573207      1.48678000      1.09626400      0.37957700      13       0       0       0       8      0.23881977      0.25182201     -0.30079994
 Al              1.31566600      1.12793000     -0.20322700     -0.02509800      0.13442500     -0.23197600      13       0       0       0      11     -0.09442993     -0.14192700      0.07510640
 Al             -0.63488856      0.71710025     -2.18203777     -1.26081200     -1.35199900      0.52718900      13       0       0       0       8      0.14282704      0.01118591      0.17354997
 F              -2.26515717     -0.07911345     -1.71619661      0.60026400      0.60552600     -0.15913300       9       0       0       0       5     -0.16492660     -0.07079107      0.09154728
 F               2.18359525     -0.34807695      0.70469045      0.00771700     -0.17845900      0.08017200       9       0       0       0       9      0.05227953     -0.21001646     -0.20221037
 F              -0.21866386      1.47202829     -3.84956233      0.17377300      0.51375900     -0.76824700       9       0       0       0       6      0.07508474      0.10323564     -0.17708744
 F              -0.28917281      2.06195175     -0.83104305      0.06998600      0.16811300      0.10552500       9       0       0       0       9     -0.12423911      0.31773216      0.27130750
 F               2.69689856      2.24400451     -0.67377644      0.14942200      0.14191700     -0.02486500       9       0       0       0       9     -0.01398738     -0.03841297      0.07508899
 F               0.95765924     -0.23152059     -1.53637425      0.22289400      0.00661900      0.03963500       9       0       0       0       9      0.34911746     -0.34855234      0.11301096
 F               0.61783312      1.60100343      1.54662804     -0.12985200     -0.00544700      0.08791900       9       0       0       0       9     -0.26954247      0.24992457     -0.05155055
 F               2.88758997      0.82419008      3.46154644     -0.48988800     -0.27667500     -0.34391000       9       0       0       0       6     -0.05651040     -0.00978688     -0.07785208
 F               0.33004167     -1.07454235      2.97960707     -0.80518400     -0.85404500      0.30811400       9       0       0       0       5     -0.13449265     -0.11441357      0.00988927
 12
 energy=8.4039767764054769 cutoff=4.00000000 nneightol=1.20000000 pbc="T T T" Lattice="13.73532034       0.00000000       0.00000000       0.00000000      13.91066596       0.00000000       0.00000000       0.00000000      17.51896977" Properties=species:S:1:pos:R:3:forces:R:3:Z:I:1:map_shift:I:3:n_neighb:I:1:force:R:3
 Al              1.26687018      0.21355742      2.49153947      0.43975100      0.34110700      0.07579900      13       0       0       0       8      0.03830717      0.26640776     -0.28303441
 Al              1.18806240      1.28695610     -0.06552390     -0.02236600      0.02578300     -0.06500500      13       0       0       0      11     -0.14650854     -0.09281325      0.09724663
 Al             -0.20845316      0.56709625     -2.38793407     -0.35614400     -0.39818200      0.18575600      13       0       0       0       8      0.17343503     -0.00409368      0.13477809
 F              -1.30884357     -0.90115895     -2.35347911      0.21697600      0.20460700     -0.03579700       9       0       0       0       5     -0.03652739     -0.06929313      0.04026406
 F               2.14996215     -0.15139915      0.82124775     -0.01329600     -0.03984200      0.03158100       9       0       0       0       9      0.18108791     -0.21018520     -0.28175629
 F              -0.00234956      1.68703779     -3.82721693      0.06122000      0.14506000     -0.20018000       9       0       0       0       6      0.02628605      0.07516048     -0.05594895
 F              -0.55260661      1.68261705     -0.80632645      0.03434100      0.03312200      0.02779000       9       0       0       0       9     -0.20802167      0.23780513      0.36811877
 F               2.32175586      2.71279411     -0.26725714      0.01592000      0.01159000      0.00350800       9       0       0       0       9     -0.02530267     -0.06374741      0.06431951
 F               1.48532364      0.13637520     -1.63117715      0.04588100      0.01503700      0.01569600       9       0       0       0       9      0.28773872     -0.24000872      0.03297504
 F               0.27230082      1.55341573      1.60260784     -0.02397700     -0.02356900      0.02737300       9       0       0       0       9     -0.24059482      0.14797715     -0.09241370
 F               2.42647677      0.91312278      3.69175284     -0.16748500     -0.08544300     -0.13119500       9       0       0       0       6      0.01808014      0.02105067     -0.00832152
 F               0.14025798     -1.19787185      2.84629297     -0.23081900     -0.22927000      0.06467500       9       0       0       0       5     -0.06797991     -0.06825979     -0.01622723
 12
 energy=8.4017197736635030 cutoff=4.00000000 nneightol=1.20000000 pbc="T T T" Lattice="13.81741214       0.00000000       0.00000000       0.00000000      13.87806436       0.00000000       0.00000000       0.00000000      17.45453877" Properties=species:S:1:pos:R:3:forces:R:3:Z:I:1:map_shift:I:3:n_neighb:I:1:force:R:3
 Al              1.32734018      0.24080982      2.48612207      0.73519700      0.56177500      0.14491300      13       0       0       0       8      0.07178993      0.28946582     -0.27812483
 Al              1.18065000      1.29134650     -0.08117450     -0.02975200      0.05030900     -0.11027600      13       0       0       0      11     -0.14260522     -0.09591583      0.09794943
 Al             -0.26755656      0.54287825     -2.36178227     -0.60467500     -0.66661600      0.29488200      13       0       0       0       8      0.15873563      0.00224299      0.15173116
 F              -1.29788417     -0.98625195     -2.32254211      0.34432200      0.33088800     -0.06625200       9       0       0       0       5     -0.04568163     -0.09968276      0.03839658
 F               2.14713575     -0.14956395      0.79475195     -0.01453300     -0.07322100      0.04928500       9       0       0       0       9      0.16545025     -0.20862349     -0.27268887
 F              -0.10995536      1.68333379     -3.80810533      0.09829800      0.24664000     -0.34830000       9       0       0       0       6      0.02974554      0.10023822     -0.08733768
 F              -0.59139181      1.64790425     -0.76795805      0.05099000      0.06375000      0.04850600       9       0       0       0       9     -0.20548806      0.24354437      0.37979026
 F               2.30081206      2.72455851     -0.31465994      0.04091400      0.03397300      0.00155600       9       0       0       0       9     -0.01975039     -0.06031846      0.06852231
 F               1.46905224      0.15365340     -1.65934275      0.08683700      0.01839900      0.02475200       9       0       0       0       9      0.31402462     -0.24150075      0.02446650
 F               0.31868862      1.57977193      1.61372004     -0.04689600     -0.02842300      0.04524700       9       0       0       0       9     -0.24093843      0.14177829     -0.08192222
 F               2.51952797      0.92618658      3.64643344     -0.26985900     -0.14189500     -0.20504000       9       0       0       0       6     -0.00398285      0.00841361     -0.03050759
 F               0.18349918     -1.15350585      2.88809057     -0.39084100     -0.39557800      0.12072700       9       0       0       0       5     -0.08129938     -0.07964201     -0.01027505
 12
 energy=8.3988901076133811 cutoff=4.00000000 nneightol=1.20000000 pbc="T T T" Lattice="15.05623894       0.00000000       0.00000000       0.00000000      13.30315876       0.00000000       0.00000000       0.00000000      17.29911077" Properties=species:S:1:pos:R:3:forces:R:3:Z:I:1:map_shift:I:3:n_neighb:I:1:force:R:3
 Al              1.52746718      0.11846222      2.41008167      1.03334100      0.77800900      0.22858100      13       0       0       0       8      0.19554693      0.21548855     -0.31825665
 Al              1.32934460      1.11599890     -0.18059510     -0.03157400      0.08032500     -0.15742200      13       0       0       0      11     -0.08672508     -0.15554219      0.06751043
 Al             -0.60277796      0.82473125     -2.19158547     -0.86162500     -0.93812900      0.39387900      13       0       0       0       8      0.11277476      0.04493864      0.18250186
 F              -2.20221277     -0.03170795     -1.80781411      0.45748800      0.44815000     -0.10099400       9       0       0       0       5     -0.11394205     -0.06210103      0.06962960
 F               2.12642135     -0.40585075      0.69769115     -0.00984600     -0.11174900      0.06403300       9       0       0       0       9      0.04172160     -0.19040740     -0.21324681
 F              -0.15491816      1.59607079     -3.82510273      0.13171200      0.35149800     -0.50790800       9       0       0       0       6      0.06787496      0.08198351     -0.13598757
 F              -0.25668001      2.09979045     -0.79383765      0.06250000      0.10092000      0.07058900       9       0       0       0       9     -0.12835039      0.29286452      0.26432926
 F               2.74256926      2.20524491     -0.60957874      0.07675200      0.06822800     -0.00488600       9       0       0       0       9     -0.02414253     -0.04625202      0.07763414
 F               0.96000384     -0.18737339     -1.56290335      0.13575200      0.01692200      0.03224000       9       0       0       0       9      0.33350326     -0.35979677      0.10756007
 F               0.62857742      1.58927813      1.56685524     -0.07563400     -0.02499500      0.06267300       9       0       0       0       9     -0.25992509      0.26292022     -0.05475536
 F               2.85402617      0.67742538      3.47400804     -0.36424300     -0.19721100     -0.26826700       9       0       0       0       6     -0.02900928      0.00118248     -0.04936554
 F               0.22548938     -1.09791385      2.93734017     -0.55462200     -0.57196800      0.18748100       9       0       0       0       5     -0.10932708     -0.08527852      0.00244658
 12
 energy=8.3965786993758531 cutoff=4.00000000 nneightol=1.20000000 pbc="T T T" Lattice="13.99192574       0.00000000       0.00000000       0.00000000      13.86512726       0.00000000       0.00000000       0.00000000      17.34425077" Properties=species:S:1:pos:R:3:forces:R:3:Z:I:1:map_shift:I:3:n_neighb:I:1:force:R:3
 Al              1.44268918      0.30348462      2.47925327      1.33474400      0.99080800      0.32603700      13       0       0       0       8      0.13969902      0.32903081     -0.26198437
 Al              1.16927320      1.29503430     -0.11433170     -0.02837700      0.11529700     -0.20660500      13       0       0       0      11     -0.12972336     -0.10417404      0.09293848
 Al             -0.39158536      0.50002425     -2.30716467     -1.12612500     -1.21312500      0.48446000      13       0       0       0       8      0.12545668      0.03845399      0.18216614
 F              -1.29570337     -1.13352595     -2.25275811      0.55628500      0.55565300     -0.13911100       9       0       0       0       5     -0.06102239     -0.17174441      0.03647377
 F               2.14962595     -0.14319255      0.75539135      0.00051200     -0.15509600      0.07562100       9       0       0       0       9      0.14659679     -0.21633368     -0.25732620
 F              -0.29994196      1.64672179     -3.78304913      0.16091300      0.45909900     -0.67873100       9       0       0       0       6      0.03395505      0.13958095     -0.14193136
 F              -0.64823521      1.60646365     -0.70538225      0.06879900      0.14426600      0.09369700       9       0       0       0       9     -0.19213903      0.25383298      0.39139313
 F               2.27252246      2.73160131     -0.41717454      0.12279400      0.11438600     -0.01669000       9       0       0       0       9     -0.00856757     -0.04959726      0.07016471
 F               1.41097544      0.16236181     -1.69925795      0.19212400      0.01105500      0.03775300       9       0       0       0       9      0.35651071     -0.23982748      0.01618550
 F               0.40115622      1.63204933      1.62395944     -0.11029900     -0.01378300      0.07961500       9       0       0       0       9     -0.25315770      0.14337149     -0.06199699
 F               2.69622237      0.96712818      3.56120164     -0.45019600     -0.25076000     -0.32119200       9       0       0       0       6     -0.04201285     -0.01003629     -0.06870090
 F               0.27676157     -1.07153585      2.97006777     -0.72117400     -0.75780000      0.26514600       9       0       0       0       5     -0.11559536     -0.11255706      0.00261810
 12
 energy=8.4056533303980032 cutoff=4.00000000 nneightol=1.20000000 pbc="T T T" Lattice="14.22204374       0.00000000       0.00000000       0.00000000      14.30328416       0.00000000       0.00000000       0.00000000      17.25520877" Properties=species:S:1:pos:R:3:forces:R:3:Z:I:1:map_shift:I:3:n_neighb:I:1:force:R:3
 Al              1.44002418     -0.19137438      2.34536127     -0.14610000     -0.11670100     -0.01792200      13       0       0       0       8      0.07883501      0.05112053     -0.20135970
 Al              1.20498520      1.27513030     -0.03397670      0.01058100     -0.00558700      0.02107300      13       0       0       0      11     -0.17841543     -0.07392682     -0.00529181
 Al             -0.39742736      0.98142725     -2.27780267      0.11427400      0.13189000     -0.06834700      13       0       0       0       8      0.19999046      0.15033302      0.28061183
 F              -1.60875237     -0.39885195     -2.27252211     -0.07906200     -0.07184200      0.00890800       9       0       0       0       5     -0.04221730     -0.07280964      0.03210264
 F               2.22979495     -0.26281055      0.62207035      0.00751600      0.01045200     -0.01173600       9       0       0       0       9      0.15763465     -0.18687429     -0.25546911
 F              -0.15075896      2.12936679     -3.66983713     -0.02159600     -0.04614400      0.06078600       9       0       0       0       6      0.02693729      0.04211167     -0.02639292
 F              -0.51459821      1.89671665     -0.62448725     -0.01386200     -0.00754800     -0.00823100       9       0       0       0       9     -0.12028392      0.09961337      0.26838427
 F               2.37322646      2.67818531     -0.17358654      0.00069000      0.00189900     -0.00241900       9       0       0       0       9     -0.06793494     -0.05140820     -0.04426437
 F               1.29773644      0.26446580     -1.69488695     -0.01109500     -0.00786400     -0.00562500       9       0       0       0       9      0.31006542     -0.27091507      0.03840556
 F               0.35402422      1.31152233      1.70070844      0.00538200      0.01229800     -0.00917100       9       0       0       0       9     -0.34961428      0.30328759     -0.07629591
 F               2.61329137      0.44433118      3.58537164      0.05928300      0.02837700      0.04926500       9       0       0       0       6      0.03599536      0.04134082      0.01862258
 F               0.33700058     -1.62509885      2.60897677      0.07398800      0.07076800     -0.01657900       9       0       0       0       5     -0.05099232     -0.03187297     -0.02905305
 12
 energy=8.4038647651623091 cutoff=4.00000000 nneightol=1.20000000 pbc="T T T" Lattice="14.10871994       0.00000000       0.00000000       0.00000000      14.37701876       0.00000000       0.00000000       0.00000000      17.32711477" Properties=species:S:1:pos:R:3:forces:R:3:Z:I:1:map_shift:I:3:n_neighb:I:1:force:R:3
 Al              1.37563318     -0.21755478      2.35203567     -0.43825300     -0.35486700     -0.04321200      13       0       0       0       8      0.05604920      0.04864714     -0.20466592
 Al              1.20988460      1.27352990     -0.01662610      0.03647300     -0.01227800      0.06262500      13       0       0       0      11     -0.18128926     -0.07608682     -0.01434468
 Al             -0.34135996      1.01268125     -2.30192947      0.33643300      0.39499500     -0.21522800      13       0       0       0       8      0.22798110      0.17879458      0.26777909
 F              -1.60306377     -0.32848495     -2.31286711     -0.24695400     -0.22035200      0.02165300       9       0       0       0       5     -0.05385864     -0.07776929      0.03266961
 F               2.24575535     -0.25353875      0.65753815      0.02715300      0.02700700     -0.03680000       9       0       0       0       9      0.18602763     -0.19136021     -0.26567187
 F              -0.04068216      2.13430879     -3.68880973     -0.06609900     -0.13473300      0.17338000       9       0       0       0       6      0.02126006      0.01781613      0.00327312
 F              -0.47700201      1.93585845     -0.65810865     -0.04504600     -0.01736800     -0.02292700       9       0       0       0       9     -0.12492912      0.09224392      0.25274875
 F               2.38781326      2.67383191     -0.12195074      0.01137500      0.01413400     -0.00842200       9       0       0       0       9     -0.06603633     -0.04436848     -0.05313139
 F               1.30884484      0.25219260     -1.66739635     -0.02703600     -0.02810300     -0.01724300       9       0       0       0       9      0.28871936     -0.26630943      0.04645706
 F               0.28919742      1.27771813      1.68323424      0.01253100      0.04358400     -0.02737900       9       0       0       0       9     -0.35810636      0.31582714     -0.08538271
 F               2.50565617      0.44498638      3.63830504      0.18262300      0.08452200      0.15617400       9       0       0       0       6      0.06297187      0.05807345      0.04937291
 F               0.31852338     -1.70318685      2.55198217      0.21679900      0.20345800     -0.04262200       9       0       0       0       5     -0.05878951     -0.05550812     -0.02910397
 12
 energy=8.4014511857977769 cutoff=4.00000000 nneightol=1.20000000 pbc="T T T" Lattice="14.00605923       0.00000000       0.00000000       0.00000000      14.42894636       0.00000000       0.00000000       0.00000000      17.39206977" Properties=species:S:1:pos:R:3:forces:R:3:Z:I:1:map_shift:I:3:n_neighb:I:1:force:R:3
 Al              1.30666518     -0.23876618      2.36080007     -0.73107800     -0.59943100     -0.05528900      13       0       0       0       8      0.03430999      0.05652040     -0.20705723
 Al              1.21729100      1.26952950     -0.00038550      0.06856000     -0.01316000      0.10372800      13       0       0       0      11     -0.17699378     -0.07977467     -0.01839648
 Al             -0.28716256      1.04616625     -2.32485727      0.55063900      0.65784400     -0.37596700      13       0       0       0       8      0.25516412      0.20681888      0.25154436
 F              -1.59543517     -0.25999395     -2.35369611     -0.42744300     -0.37457700      0.02710700       9       0       0       0       5     -0.07007538     -0.08802080      0.03294175
 F               2.24691975     -0.25397495      0.69368095      0.05283300      0.03769400     -0.06372500       9       0       0       0       9      0.21058922     -0.19384570     -0.27504233
 F               0.06676564      2.14156679     -3.70651633     -0.11180100     -0.21798400      0.27398800       9       0       0       0       6      0.01504259     -0.00299787      0.02972475
 F              -0.43746781      1.97418825     -0.68709405     -0.08062800     -0.02020400     -0.03504400       9       0       0       0       9     -0.13313999      0.09023241      0.24042994
 F               2.41062406      2.66028751     -0.07442694      0.03474200      0.03732500     -0.01517700       9       0       0       0       9     -0.06443214     -0.03914846     -0.05902277
 F               1.31857424      0.24084040     -1.64453375     -0.03484200     -0.05454700     -0.02915000       9       0       0       0       9      0.27103754     -0.26491932      0.05163392
 F               0.23657062      1.25754493      1.66673004      0.01524300      0.08367400     -0.04512100       9       0       0       0       9     -0.36072231      0.32717035     -0.09408479
 F               2.40903097      0.43202558      3.68555344      0.31185500      0.13936500      0.27429100       9       0       0       0       6      0.08760927      0.07280885      0.07832308
 F               0.28823517     -1.76865885      2.49975357      0.35192100      0.32400200     -0.05964200       9       0       0       0       5     -0.06838914     -0.08484405     -0.03099421
 12
 energy=8.3987429589194242 cutoff=4.00000000 nneightol=1.20000000 pbc="T T T" Lattice="14.02457643       0.00000000       0.00000000       0.00000000      14.46651196       0.00000000       0.00000000       0.00000000      17.45072477" Properties=species:S:1:pos:R:3:forces:R:3:Z:I:1:map_shift:I:3:n_neighb:I:1:force:R:3
 Al              1.23556518     -0.25724458      2.37056847     -1.02539100     -0.85015900     -0.05553400      13       0       0       0       8      0.01378284      0.07229453     -0.20599201
 Al              1.22637840      1.26399410      0.01510310      0.10653400     -0.00857400      0.14477500      13       0       0       0      11     -0.16917556     -0.08472975     -0.02070457
 Al             -0.23527116      1.08193225     -2.34640407      0.75781200      0.92116700     -0.55052800      13       0       0       0       8      0.28064274      0.23354624      0.23290607
 F              -1.58580357     -0.19394495     -2.39498611     -0.61995800     -0.53364200      0.02469400       9       0       0       0       5     -0.08948407     -0.10181889      0.03332694
 F               2.23697115     -0.26180315      0.72871375      0.08435600      0.04248200     -0.09217000       9       0       0       0       9      0.23093617     -0.19471765     -0.28339687
 F               0.17020444      2.15213879     -3.72248193     -0.15803200     -0.29542600      0.36264900       9       0       0       0       6      0.00913748     -0.02034980      0.05344682
 F              -0.39765361      2.01101205     -0.71109145     -0.12030900     -0.01620000     -0.04433600       9       0       0       0       9     -0.14426529      0.09260506      0.23102186
 F               2.43877286      2.64073611     -0.02975714      0.07105000      0.07106200     -0.02172300       9       0       0       0       9     -0.06157069     -0.03378997     -0.06265577
 F               1.32760664      0.23181220     -1.62622515     -0.03487400     -0.08734400     -0.04116200       9       0       0       0       9      0.25738751     -0.26697270      0.05452341
 F               0.19417682      1.24694373      1.65213884      0.01400500      0.13226700     -0.06200100       9       0       0       0       9     -0.35829805      0.33733311     -0.10221469
 F               2.32117277      0.40870478      3.72824284      0.44639600      0.19233200      0.40360700       9       0       0       0       6      0.10961940      0.08457929      0.10477977
 F               0.25043298     -1.82577585      2.45047697      0.47841100      0.43203600     -0.06827100       9       0       0       0       5     -0.07871249     -0.11797947     -0.03504095
 12
 energy=8.3958682478547502 cutoff=4.00000000 nneightol=1.20000000 pbc="T T T" Lattice="14.04456463       0.00000000       0.00000000       0.00000000      14.49422556       0.00000000       0.00000000       0.00000000      17.50308777" Properties=species:S:1:pos:R:3:forces:R:3:Z:I:1:map_shift:I:3:n_neighb:I:1:force:R:3
 Al              1.16404518     -0.27465298      2.38062687     -1.32187200     -1.10645600     -0.04568800      13       0       0       0       8     -0.00584100      0.09366463     -0.20109951
 Al              1.23653980      1.25737470      0.03008170      0.14988300      0.00099600      0.18610900      13       0       0       0      11     -0.16112595     -0.09093938     -0.02487607
 Al             -0.18579976      1.12000725     -2.36662487      0.95910300      1.18558700     -0.73844000      13       0       0       0       8      0.30364359      0.25846343      0.21247075
 F              -1.57422997     -0.13045795     -2.43695511     -0.82386900     -0.69666900      0.01391400       9       0       0       0       5     -0.11013799     -0.11742146      0.03466631
 F               2.21824155     -0.27561835      0.76124755      0.12143500      0.04139900     -0.12177900       9       0       0       0       9      0.24709478     -0.19434090     -0.29112302
 F               0.26851824      2.16743179     -3.73614753     -0.20410400     -0.36661300      0.43947800       9       0       0       0       6      0.00440076     -0.03487018      0.07619221
 F              -0.35883341      2.04559585     -0.72996985     -0.16374300     -0.00559500     -0.05057800       9       0       0       0       9     -0.15753556      0.09836427      0.22415945
 F               2.47033466      2.61718371      0.01297566      0.12046900      0.11486400     -0.02710500       9       0       0       0       9     -0.05651088     -0.02754233     -0.06377156
 F               1.33667804      0.22607700     -1.61245455     -0.02763300     -0.12653000     -0.05317400       9       0       0       0       9      0.24761070     -0.27243467      0.05549012
 F               0.16071002      1.24301553      1.64024564      0.00932500      0.18887300     -0.07756500       9       0       0       0       9     -0.35196876      0.34674344     -0.10931137
 F               2.24092957      0.37689798      3.76694024      0.58564900      0.24286900      0.54405100       9       0       0       0       6      0.12935074      0.09354870      0.12849551
 F               0.20769577     -1.87704185      2.40340837      0.59535600      0.52727400     -0.06922400       9       0       0       0       5     -0.08898045     -0.15323556     -0.04129283
 12
 energy=8.2679732847600071 cutoff=4.00000000 nneightol=1.20000000 pbc="T T T" Lattice="13.98029873       0.00000000       0.00000000       0.00000000      13.46338796       0.00000000       0.00000000       0.00000000      17.13088377" Properties=species:S:1:pos:R:3:forces:R:3:Z:I:1:map_shift:I:3:n_neighb:I:1:force:R:3
 Al              1.10892968      0.06419632      2.34669207     -0.38826900      0.25166900     -0.28720400      13       0       0       0       8     -0.11456978      0.12972504     -0.33976122
 Al              1.45132100      1.35321300     -0.11466900      0.09164100      0.08609300     -0.01658300      13       0       0       0      11     -0.01075008     -0.01009807      0.00194581
 Al             -0.29345956      0.68143525     -2.19830877      0.28399700     -0.34964300      0.30609600      13       0       0       0       8      0.18639847     -0.06224622      0.32676204
 F              -1.24463217     -0.90359245     -2.01052661     -0.41484800     -0.55881400      0.03449400       9       0       0       0       6     -0.07187330     -0.14065972      0.05501997
 F               1.75369425     -0.44373595      0.59638945      0.24627400     -0.44234500     -0.24579400       9       0       0       0      10      0.08744835     -0.27199312     -0.34768585
 F              -0.49137686      1.95931329     -3.61012233      0.06318000      0.79733700     -0.74719000       9       0       0       0       5     -0.00365049      0.22572162     -0.19178128
 F              -0.43246481      1.66450275     -0.53953405     -0.37659700      0.31991300      0.26937800       9       0       0       0      10     -0.19725284      0.16884535      0.36754933
 F               2.73566656      2.55979551     -0.34710444     -0.01997800     -0.01876800      0.00361600       9       0       0       0       7     -0.16087434     -0.15113363      0.02911423
 F               1.60667224      0.43062740     -1.86259725      0.28687500     -0.18410500     -0.22509100       9       0       0       0       9      0.37846076     -0.23886512     -0.09686499
 F               0.88346312      1.88826643      1.70791204     -0.12538300      0.33581900      0.19586200       9       0       0       0       9     -0.19928384      0.40719042      0.06443735
 F               2.62055497      0.02047708      3.52076144      0.92614900      0.13210300      0.56812900       9       0       0       0       5      0.25751020      0.01276566      0.14584000
 F              -0.52350333     -0.77793935      2.62646907     -0.57304200     -0.36925900      0.14428600       9       0       0       0       6     -0.15156310     -0.06925221     -0.01457539
 12
 energy=8.3582114222687878 cutoff=4.00000000 nneightol=1.20000000 pbc="T T T" Lattice="14.03287254       0.00000000       0.00000000       0.00000000      13.31304086       0.00000000       0.00000000       0.00000000      17.16887507" Properties=species:S:1:pos:R:3:forces:R:3:Z:I:1:map_shift:I:3:n_neighb:I:1:force:R:3
 Al              1.18823168      0.08808842      2.41877597     -0.06200400      0.05141600     -0.01482400      13       0       0       0       8     -0.13000720      0.20240746     -0.41970772