 12
 energy=8.4056821485778830 cutoff=4.00000000 nneightol=1.20000000 pbc="T T T" Lattice="14.84257654       0.00000000       0.00000000       0.00000000      13.29318356       0.00000000       0.00000000       0.00000000      17.23242277" Properties=species:S:1:pos:R:3:forces:R:3:Z:I:1:map_shift:I:3:n_neighb:I:1:force:R:3
 Al              1.41043718     -0.04903798      2.39015287      0.14626800      0.11516100      0.02156100      13       0       0       0       8      0.10140467      0.13271844     -0.33506451
 Al              1.34891980      1.10318770     -0.13121330     -0.00900600      0.00709500     -0.02133900      13       0       0       0      11     -0.07942121     -0.16828979      0.05228414
 Al             -0.52643376      1.02853025     -2.21557187     -0.11647900     -0.13224600      0.06505700      13       0       0       0       8      0.09371397      0.11094135      0.16995391
 F              -2.03256797      0.01227205     -2.00923011      0.07572800      0.07009200     -0.01048200       9       0       0       0       5     -0.02939607     -0.04324744      0.04349043
 F               1.99285955     -0.52830535      0.65354055     -0.00597200     -0.01188100      0.01115500       9       0       0       0       9      0.04197587     -0.17339495     -0.25399417
 F              -0.08378876      1.90987479     -3.74659053      0.02105300      0.04729100     -0.06376600       9       0       0       0       6      0.03830909      0.02818693     -0.03101587
 F              -0.23760141      2.11363585     -0.68690285      0.01267000      0.00930200      0.00877200       9       0       0       0       9     -0.12882262      0.21447773      0.24947288
 F               2.80398366      2.16367571     -0.46439234      0.00234600      0.00096200      0.00187300       9       0       0       0       9     -0.04526285     -0.05449447      0.06401241
 F               1.02022904     -0.04159999     -1.65305755      0.01319500      0.00640900      0.00545500       9       0       0       0       9      0.29618542     -0.35355865      0.08620288
 F               0.67381702      1.56773253      1.63401464     -0.00665700     -0.01006800      0.00916800       9       0       0       0       9     -0.25898403      0.31913584     -0.04845461
 F               2.81000857      0.34919698      3.48583224     -0.05760000     -0.02848000     -0.04648700       9       0       0       0       6      0.04844736      0.02803695      0.01368792
 F               0.00149378     -1.12950785      2.85693037     -0.07554600     -0.07363800      0.01903300       9       0       0       0       5     -0.07814960     -0.04051194     -0.01057541
 12
 energy=8.4049345060105374 cutoff=4.00000000 nneightol=1.20000000 pbc="T T T" Lattice="14.88347894       0.00000000       0.00000000       0.00000000      13.29050126       0.00000000       0.00000000       0.00000000      17.24791477" Properties=species:S:1:pos:R:3:forces:R:3:Z:I:1:map_shift:I:3:n_neighb:I:1:force:R:3
 Al              1.42879368     -0.01969628      2.39422567      0.29281500      0.22883900      0.04681800      13       0       0       0       8      0.11709539      0.14669412     -0.33436626
 Al              1.34689660      1.10365240     -0.14008360     -0.01645200      0.01569500     -0.04299200      13       0       0       0      11     -0.07933085     -0.16987573      0.05810465
 Al             -0.54172096      0.99758925     -2.21037197     -0.23519200     -0.26494300      0.12693200      13       0       0       0       8      0.09088569      0.09993984      0.17394468
 F              -2.06738077      0.01288755     -1.97275661      0.14806900      0.13832900     -0.02244600       9       0       0       0       5     -0.04029338     -0.04581962      0.04594358
 F               2.01622485     -0.50845975      0.66380065     -0.01040200     -0.02517000      0.02169300       9       0       0       0       9      0.03923368     -0.17349273     -0.24511285
 F              -0.08863166      1.84969529     -3.76325073      0.04148500      0.09566600     -0.13049900       9       0       0       0       6      0.04430942      0.03828234     -0.05014961
 F              -0.23458601      2.11971195     -0.70720465      0.02412400      0.02034900      0.01804800       9       0       0       0       9     -0.12974881      0.23008688      0.25217247
 F               2.79846576      2.16495291     -0.49107924      0.00767300      0.00481600      0.00308100       9       0       0       0       9     -0.04042860     -0.05282112      0.06782880
 F               1.00198084     -0.07244539     -1.63454385      0.02849200      0.01140600      0.01070100       9       0       0       0       9      0.30303174     -0.35807667      0.09060871
 F               0.66514992      1.57170363      1.62001724     -0.01463500     -0.01791600      0.01830100       9       0       0       0       9     -0.25761392      0.30703429     -0.05106232
 F               2.81609817      0.40582888      3.48466404     -0.11345000     -0.05698600     -0.09021200       9       0       0       0       6      0.03308168      0.02365107      0.00166945
 F               0.03986688     -1.12554835      2.87001767     -0.15252700     -0.15008400      0.04057500       9       0       0       0       5     -0.08022204     -0.04560268     -0.00958130
 12
 energy=8.4028926449148660 cutoff=4.00000000 nneightol=1.20000000 pbc="T T T" Lattice="13.77556274       0.00000000       0.00000000       0.00000000      13.89502066       0.00000000       0.00000000       0.00000000      17.48593477" Properties=species:S:1:pos:R:3:forces:R:3:Z:I:1:map_shift:I:3:n_neighb:I:1:force:R:3
 Al              1.29733568      0.22686512      2.48866727      0.58717900      0.45205200      0.10850600      13       0       0       0       8      0.05489649      0.27817451     -0.28087883
 Al              1.18415920      1.28943580     -0.07324320     -0.02678400      0.03733300     -0.08742100      13       0       0       0      11     -0.14482024     -0.09440584      0.09833799
 Al             -0.23759836      0.55453325     -2.37503717     -0.47932000     -0.53204700      0.24168300      13       0       0       0       8      0.16607227     -0.00216418      0.14327070
 F              -1.30227237     -0.94501145     -2.33846561      0.28240600      0.26882700     -0.05043400       9       0       0       0       5     -0.04111946     -0.08382481      0.03925825
 F               2.14828545     -0.15046155      0.80741385     -0.01466700     -0.05587000      0.04078900       9       0       0       0       9      0.17273444     -0.20893386     -0.27714977
 F              -0.05740546      1.68659929     -3.81702113      0.08018200      0.19540600     -0.27278900       9       0       0       0       6      0.02816889      0.08814054     -0.07200360
 F              -0.57307821      1.66379715     -0.78661625      0.04330200      0.04759900      0.03795600       9       0       0       0       9     -0.20720920      0.24076231      0.37446930
 F               2.31050796      2.71961831     -0.29053404      0.02702400      0.02130300      0.00303800       9       0       0       0       9     -0.02239359     -0.06204664      0.06669721
 F               1.47860244      0.14622880     -1.64594745      0.06534000      0.01735000      0.02039500       9       0       0       0       9      0.30132028     -0.24099884      0.02837765
 F               0.29581072      1.56654783      1.60870344     -0.03472000     -0.02705700      0.03636000       9       0       0       0       9     -0.24021592      0.14416827     -0.08715176
 F               2.47329037      0.91917368      3.66891364     -0.21964200     -0.11377200     -0.16946200       9       0       0       0       6      0.00676919      0.01445161     -0.01983519
 F               0.16161507     -1.17540235      2.86725027     -0.31029900     -0.31112500      0.09138000       9       0       0       0       5     -0.07420314     -0.07332308     -0.01339196
 12
 energy=8.4004888770921973 cutoff=4.00000000 nneightol=1.20000000 pbc="T T T" Lattice="13.86039154       0.00000000       0.00000000       0.00000000      13.86013106       0.00000000       0.00000000       0.00000000      17.42468477" Properties=species:S:1:pos:R:3:forces:R:3:Z:I:1:map_shift:I:3:n_neighb:I:1:force:R:3
 Al              1.35688168      0.25543052      2.48391287      0.88389100      0.67038700      0.18496500      13       0       0       0       8      0.08885175      0.30023620     -0.27483013
 Al              1.17745580      1.29278420     -0.08927680     -0.03132800      0.06466000     -0.13360200      13       0       0       0      11     -0.13994940     -0.09747946      0.09665240
 Al             -0.29811476      0.53183825     -2.34828237     -0.73214200     -0.80195800      0.34554500      13       0       0       0       8      0.15117124      0.00883304      0.15993273
 F              -1.29529897     -1.02537945     -2.30590461      0.40269100      0.39069300     -0.08314300       9       0       0       0       5     -0.05006450     -0.11663296      0.03768390
 F               2.14659705     -0.14853735      0.78324605     -0.01291600     -0.09186100      0.05704200       9       0       0       0       9      0.15922133     -0.20923861     -0.26843950
 F              -0.16029226      1.67753829     -3.80033353      0.11549800      0.29869300     -0.42668400       9       0       0       0       6      0.03105849      0.11140129     -0.10196683
 F              -0.60784841      1.63452735     -0.75042385      0.05739300      0.08153800      0.05939800       9       0       0       0       9     -0.20297911      0.24618756      0.38411299
 F               2.29238016      2.72795771     -0.33949884      0.05751600      0.04961300     -0.00104800       9       0       0       0       9     -0.01716158     -0.05835005      0.06982121
 F               1.45714004      0.15883801     -1.67137705      0.11032600      0.01823800      0.02871700       9       0       0       0       9      0.32584837     -0.24157625      0.02126050
 F               0.34078852      1.59302003      1.61771264     -0.06052800     -0.02771600      0.05402000       9       0       0       0       9     -0.24268005      0.14065557     -0.07676036
 F               2.56509257      0.93431648      3.62435124     -0.31807800     -0.16973400     -0.23796200       9       0       0       0       6     -0.01418100      0.00294316     -0.04049886
 F               0.20594228     -1.13217335      2.90881487     -0.47232400     -0.48255200      0.15275100       9       0       0       0       5     -0.08913555     -0.08697948     -0.00696803
 12
 energy=8.3979139861859178 cutoff=4.00000000 nneightol=1.20000000 pbc="T T T" Lattice="13.94805734       0.00000000       0.00000000       0.00000000      13.82997556       0.00000000       0.00000000       0.00000000      17.36951577" Properties=species:S:1:pos:R:3:forces:R:3:Z:I:1:map_shift:I:3:n_neighb:I:1:force:R:3
 Al              1.41455668      0.28677392      2.48049247      1.18360800      0.88477000      0.27565100      13       0       0       0       8      0.12291151      0.32004618     -0.26675721
 Al              1.17180440      1.29455560     -0.10587840     -0.03056400      0.09723200     -0.18175300      13       0       0       0      11     -0.13349785     -0.10143562      0.09357304
 Al             -0.36029316      0.51061925     -2.32089857     -0.99300300     -1.07517400      0.44010500      13       0       0       0       8      0.13462844      0.02724182      0.17517305
 F              -1.29443157     -1.09873545     -2.27094461      0.50869100      0.50316500     -0.11969000       9       0       0       0       5     -0.05781672     -0.15287746      0.03671927
 F               2.14773765     -0.14549115      0.76360225     -0.00535700     -0.13284200      0.07023400       9       0       0       0       9      0.14982751     -0.21313317     -0.26074992
 F              -0.25513406      1.65910429     -3.78786793      0.14687200      0.40499000     -0.59193700       9       0       0       0       6      0.03310612      0.13101425     -0.12924202
 F              -0.63608361      1.61406855     -0.71905845      0.06630400      0.12184800      0.08203700       9       0       0       0       9     -0.19614541      0.25127182      0.38987594
 F               2.27841936      2.73124011     -0.39085764      0.09854000      0.08982000     -0.01006500       9       0       0       0       9     -0.01162433     -0.05307951      0.07072442
 F               1.42776564      0.16306220     -1.69133965      0.16304500      0.01450900      0.03527000       9       0       0       0       9      0.34700901     -0.24068165      0.01709789
 F               0.38213732      1.61925523      1.62279384     -0.09222400     -0.02032600      0.07120300       9       0       0       0       9     -0.24887171      0.14159932     -0.06676251
 F               2.65362577      0.95460628      3.58164784     -0.40829900     -0.22424600     -0.29599400       9       0       0       0       6     -0.03309311     -0.00627203     -0.05931307
 F               0.25256547     -1.09117835      2.94983847     -0.63761300     -0.66374500      0.22494000       9       0       0       0       5     -0.10643346     -0.10369395     -0.00033887
 12
 energy=8.4235350534386342 cutoff=4.00000000 nneightol=1.20000000 pbc="T T T" Lattice="14.29632273       0.00000000       0.00000000       0.00000000      13.64931486       0.00000000       0.00000000       0.00000000      17.52225377" Properties=species:S:1:pos:R:3:forces:R:3:Z:I:1:map_shift:I:3:n_neighb:I:1:force:R:3
 Al              1.03577868     -0.15752768      2.44070307      0.00000000      0.00000000      0.00000000      13       0       0       0       8     -0.14705495     -0.02743806     -0.23639484
 Al              1.31910700      1.15875800     -0.00746900      0.00000000      0.00000000     -0.00000000      13       0       0       0      11     -0.11158910     -0.11944096      0.02505472
 Al             -0.11864656      1.07568125     -2.40201477      0.00000000      0.00000000     -0.00000000      13       0       0       0       8      0.35373675      0.22653595      0.18874636
 F              -1.58224917     -0.09303045     -2.44894661     -0.00000000     -0.00000000      0.00000000       9       0       0       0       5     -0.12103344     -0.11590712      0.03843073
 F               1.94792225     -0.47409195      0.78361345      0.00000000     -0.00000000      0.00000000       9       0       0       0       9      0.12152544     -0.14517364     -0.29344617
 F               0.37875614      2.08574829     -3.78190233     -0.00000000     -0.00000000      0.00000000       9       0       0       0       6      0.00111382     -0.03751901      0.08705903
 F              -0.23151481      2.04572175     -0.77410805     -0.00000000      0.00000000     -0.00000000       9       0       0       0       9     -0.15578132      0.14685874      0.23973040
 F               2.71407356      2.33004751     -0.09489444      0.00000000      0.00000000     -0.00000000       9       0       0       0       9     -0.10620350     -0.06274104     -0.04947761
 F               1.33510624      0.10627341     -1.63014525     -0.00000000     -0.00000000     -0.00000000       9       0       0       0       9      0.19549273     -0.26671144      0.08519434
 F               0.38129912      1.46535443      1.63965104     -0.00000000     -0.00000000      0.00000000       9       0       0       0       9     -0.21056850      0.27348461     -0.12228448
 F               2.28853497      0.27709308      3.74035144     -0.00000000     -0.00000000      0.00000000       9       0       0       0       6      0.11084606      0.05231902      0.08242798
 F              -0.28745232     -1.31926735      2.65100107     -0.00000000     -0.00000000     -0.00000000       9       0       0       0       5      0.06951600      0.07573295     -0.04504046
 12
 energy=8.4048687438046006 cutoff=4.00000000 nneightol=1.20000000 pbc="T T T" Lattice="14.16402934       0.00000000       0.00000000       0.00000000      14.34352546       0.00000000       0.00000000       0.00000000      17.29207477" Properties=species:S:1:pos:R:3:forces:R:3:Z:I:1:map_shift:I:3:n_neighb:I:1:force:R:3
 Al              1.40860368     -0.20527008      2.34834247     -0.29214700     -0.23498300     -0.03228900      13       0       0       0       8      0.06737385      0.04843194     -0.20282818
 Al              1.20705340      1.27471260     -0.02513340      0.02274100     -0.00967400      0.04193000      13       0       0       0      11     -0.18100177     -0.07478125     -0.01063557
 Al             -0.36920816      0.99678225     -2.28999057      0.22639500      0.26352300     -0.14007000      13       0       0       0       8      0.21402570      0.16456024      0.27469553
 F              -1.60611357     -0.36352345     -2.29262861     -0.16140000     -0.14532900      0.01615300       9       0       0       0       5     -0.04741857     -0.07454159      0.03243252
 F               2.23992665     -0.25676815      0.63957125      0.01657000      0.01945900     -0.02401500       9       0       0       0       9      0.17225778     -0.18938197     -0.26062260
 F              -0.09553306      2.13163529     -3.67943393     -0.04365600     -0.09107500      0.11858100       9       0       0       0       6      0.02421218      0.02956415     -0.01119491
 F              -0.49618761      1.91632755     -0.64182745     -0.02888700     -0.01333600     -0.01588500       9       0       0       0       9     -0.12213905      0.09520375      0.26013811
 F               2.37924536      2.67743811     -0.14715064      0.00446700      0.00662400     -0.00526700       9       0       0       0       9     -0.06681539     -0.04747623     -0.04916680
 F               1.30352064      0.25835121     -1.68057065     -0.02009900     -0.01722100     -0.01138400       9       0       0       0       9      0.29900619     -0.26824317      0.04283451
 F               0.31993432      1.29259523      1.69192784      0.00954100      0.02682900     -0.01831100       9       0       0       0       9     -0.35462441      0.30967289     -0.08089953
 F               2.55791577      0.44661728      3.61264084      0.12018000      0.05657600      0.10132000       9       0       0       0       6      0.04968964      0.04981238      0.03412883
 F               0.32960548     -1.66608735      2.57971047      0.14629500      0.13860600     -0.03076400       9       0       0       0       5     -0.05456613     -0.04282114     -0.02888193
 12
 energy=8.4027084747024734 cutoff=4.00000000 nneightol=1.20000000 pbc="T T T" Lattice="14.05564554       0.00000000       0.00000000       0.00000000      14.40514406       0.00000000       0.00000000       0.00000000      17.36040877" Properties=species:S:1:pos:R:3:forces:R:3:Z:I:1:map_shift:I:3:n_neighb:I:1:force:R:3
 Al              1.34154368     -0.22862048      2.35623787     -0.58452800     -0.47635500     -0.05082500      13       0       0       0       8      0.04501254      0.05144395     -0.20620260
 Al              1.21333380      1.27176120     -0.00839380      0.05175700     -0.01342800      0.08320700      13       0       0       0      11     -0.17979876     -0.07776474     -0.01680393
 Al             -0.31398976      1.02914125     -2.31356137      0.44447900      0.52640400     -0.29385700      13       0       0       0       8      0.24173581      0.19292198      0.26001927
 F              -1.59950797     -0.29394745     -2.33322761     -0.33565800     -0.29680400      0.02532900       9       0       0       0       5     -0.06146531     -0.08233819      0.03282653
 F               2.24791505     -0.25271735      0.67565205      0.03924800      0.03308800     -0.05005100       9       0       0       0       9      0.19882592     -0.19283309     -0.27049320
 F               0.01347574      2.13758529     -3.69785453     -0.08884100     -0.17705600      0.22518200       9       0       0       0       6      0.01816854      0.00695827      0.01690484
 F              -0.45735641      1.95517335     -0.67321285     -0.06230500     -0.01965300     -0.02932400       9       0       0       0       9     -0.12862294      0.09062879      0.24619778
 F               2.39840516      2.66796771     -0.09776684      0.02145500      0.02438400     -0.01176500       9       0       0       0       9     -0.06531346     -0.04168704     -0.05637767
 F               1.31383604      0.24629400     -1.65538905     -0.03193700     -0.04053800     -0.02317300       9       0       0       0       9      0.27937755     -0.26518940      0.04936461
 F               0.26150252      1.26621903      1.67479564      0.01441200      0.06254300     -0.03633100       9       0       0       0       9     -0.36010634      0.32166246     -0.08978032
 F               2.45613757      0.43996748      3.66255424      0.24653800      0.11214300      0.21383000       9       0       0       0       6      0.07562967      0.06579168      0.06413749
 F               0.30453228     -1.73717635      2.52541887      0.28538100      0.26527300     -0.05222200       9       0       0       0       5     -0.06344321     -0.06959467     -0.02979280
 12
 energy=8.4001220006736972 cutoff=4.00000000 nneightol=1.20000000 pbc="T T T" Lattice="14.01502633       0.00000000       0.00000000       0.00000000      14.44920266       0.00000000       0.00000000       0.00000000      17.42216877" Properties=species:S:1:pos:R:3:forces:R:3:Z:I:1:map_shift:I:3:n_neighb:I:1:force:R:3
 Al              1.27126368     -0.24823488      2.36560827     -0.87800200     -0.72405300     -0.05679000      13       0       0       0       8      0.02391827      0.06357598     -0.20701774
 Al              1.22166520      1.26691980      0.00743580      0.08683800     -0.01152400      0.12423500      13       0       0       0      11     -0.17331553     -0.08209850     -0.01955102
 Al             -0.26091536      1.06376125     -2.33580417      0.65503700      0.78940400     -0.46153900      13       0       0       0       8      0.26816893      0.22038910      0.24247538
 F              -1.59086237     -0.22665545     -2.37427561     -0.52223500     -0.45355900      0.02691700       9       0       0       0       5     -0.07949338     -0.09459031      0.03307801
 F               2.24316845     -0.25706655      0.71142885      0.06788000      0.04082500     -0.07777900       9       0       0       0       9      0.22129584     -0.19445918     -0.27932800
 F               0.11905354      2.14636529     -3.71474613     -0.13489300     -0.25746000      0.31980700       9       0       0       0       6      0.01199407     -0.01208084      0.04184413
 F              -0.41751321      1.99283115     -0.69972725     -0.09997700     -0.01904400     -0.04005800       9       0       0       0       9     -0.13838827      0.09093438      0.23538830
 F               2.42416396      2.65112231     -0.05179704      0.05126600      0.05290400     -0.01853600       9       0       0       0       9     -0.06322879     -0.03655745     -0.06111866
 F               1.32313644      0.23597081     -1.63481345     -0.03580200     -0.07014700     -0.03515100       9       0       0       0       9      0.26371335     -0.26551368      0.05333700
 F               0.21418572      1.25124683      1.65914344      0.01508600      0.10693300     -0.05369600       9       0       0       0       9     -0.36007397      0.33237764     -0.09824889
 F               2.36409637      0.42151868      3.70742264      0.37849900      0.16611800      0.33755200       9       0       0       0       6      0.09892472      0.07906921      0.09188001
 F               0.27008608     -1.79808035      2.47480927      0.41630300      0.37960300     -0.06496300       9       0       0       0       5     -0.07351524     -0.10104636     -0.03273851
 12
 energy=8.3981256434017872 cutoff=4.00000000 nneightol=1.20000000 pbc="T T T" Lattice="14.47423153       0.00000000       0.00000000       0.00000000      12.87443026       0.00000000       0.00000000       0.00000000      17.53651777" Properties=species:S:1:pos:R:3:forces:R:3:Z:I:1:map_shift:I:3:n_neighb:I:1:force:R:3
 Al              0.96759968      0.03094272      2.50698967     -1.17332400     -0.97766400     -0.05175000      13       0       0       0       8      0.00180770      0.09895313     -0.19999571
 Al              1.37901260      1.08186840     -0.06086860      0.12757700     -0.00437700      0.16538700      13       0       0       0      11     -0.12338927     -0.13935833     -0.04723198
 Al             -0.09233896      0.94309825     -2.42300897      0.85911300      1.05320600     -0.64286200      13       0       0       0       8      0.36732992      0.14311811      0.17763816
 F              -1.58333377     -0.17256945     -2.41132361     -0.72053000     -0.61471600      0.02037800       9       0       0       0       5     -0.10549166     -0.09590271      0.03876939
 F               1.72995085     -0.60894375      0.81369265      0.10222300      0.04267100     -0.10685200       9       0       0       0       9      0.16266589     -0.28094598     -0.38422439
 F               0.40790434      1.91176429     -3.83932273     -0.18113200     -0.33182800      0.40253300       9       0       0       0       6      0.00390189     -0.02124952      0.06408407
 F              -0.15575701      1.99890295     -0.82563765     -0.14158100     -0.01170400     -0.04785100       9       0       0       0       9     -0.15205697      0.20898420      0.26120266
 F               2.89089776      2.10573391     -0.25102424      0.09411400      0.09173800     -0.02461900       9       0       0       0       9     -0.06563008     -0.01954077     -0.05606642
 F               1.33326484     -0.02339139     -1.63996685     -0.03212700     -0.10614100     -0.04717200       9       0       0       0       9      0.14191680     -0.24439392      0.08637850
 F               0.58297992      1.70116463      1.62518024      0.01206400      0.15960700     -0.06997800       9       0       0       0       9     -0.22460477      0.35673666     -0.03841203
 F               2.37791117      0.30490988      3.69719504      0.51547100      0.21793800      0.47244500       9       0       0       0       6      0.15366199      0.04513371      0.09456926
 F              -0.66082913     -0.76869635      2.92548867      0.53813200      0.48127000     -0.06965900       9       0       0       0       5     -0.16011142     -0.05153459      0.00328849
 12
 energy=8.3702417851787114 cutoff=4.00000000 nneightol=1.20000000 pbc="T T T" Lattice="14.48774843       0.00000000       0.00000000       0.00000000      13.88263386       0.00000000       0.00000000       0.00000000      17.61200287" Properties=species:S:1:pos:R:3:forces:R:3:Z:I:1:map_shift:I:3:n_neighb:I:1:force:R:3
 Al              1.34590868     -0.00254698      2.43429137     -0.01595900      0.01626400      0.00311400      13       0       0       0       8      0.07977811      0.13540680     -0.36141545
 Al              1.25270600      1.16662200     -0.07872600      0.00089700      0.00084300     -0.00016200      13       0       0       0      11     -0.11369089     -0.10680444      0.02057344
 Al             -0.36500946      0.90359265     -2.31584607      0.01466100     -0.01748500     -0.00287700      13       0       0       0       8      0.20465996      0.13180620      0.30994494
 F              -1.91997587     -0.08090545     -2.14781271     -0.00521000     -0.00483800      0.00086300       9       0       0       0       5     -0.09191084     -0.07276198      0.04983277
 F               2.29339375     -0.25113455      0.80064765      0.00800600     -0.00814900     -0.01134600       9       0       0       0       9      0.20900676     -0.23204870     -0.21002491
 F               0.28129614      1.63398269     -3.89976543      0.00026000      0.00907300     -0.00776900       9       0       0       0       6      0.08296296      0.07005935     -0.13244634
 F              -0.25825721      2.14257955     -0.87299155     -0.00549600      0.01050700      0.01089100       9       0       0       0       9     -0.17870478      0.26051414      0.20454121
 F               2.56777256      2.40205651     -0.31671744     -0.00016500     -0.00015500      0.00003000       9       0       0       0       9     -0.17007408     -0.15977565      0.03077911
 F               1.07084424     -0.12681370     -1.49052835     -0.00618100      0.00338200     -0.00478400       9       0       0       0       9      0.29135372     -0.32274429      0.11758246
 F               0.24261892      1.34028523      1.54878744      0.00394900     -0.00547900      0.00518800       9       0       0       0       9     -0.32594515      0.29024797     -0.11132409
 F               2.39030907      0.85539188      3.71223744      0.01037800      0.00092200      0.00584100       9       0       0       0       6      0.09742306      0.09940403      0.09979908
 F               0.27962037     -1.48057735      2.74063417     -0.00513900     -0.00488400      0.00101000       9       0       0       0       5     -0.08485884     -0.09330343     -0.01784221
 12
 energy=8.3634545421350612 cutoff=4.00000000 nneightol=1.20000000 pbc="T T T" Lattice="14.43709613       0.00000000       0.00000000       0.00000000      13.81689486       0.00000000       0.00000000       0.00000000      17.58195397" Properties=species:S:1:pos:R:3:forces:R:3:Z:I:1:map_shift:I:3:n_neighb:I:1:force:R:3
 Al              1.34396568      0.02324772      2.46023367     -0.03652000      0.03323400     -0.00193500      13       0       0       0       8      0.09405629      0.15369265     -0.36312402