12
Properties=species:S:1:pos:R:3:forces:R:3 energy=-187.38419571 pbc="F F F"
Al    1.41043718    -0.04903798299999999    2.390152873    0.146268    0.115161    0.021561
Al    1.3489198    1.1031876999999999    -0.1312133    -0.009006    0.007095    -0.021339
Al    -0.526433762    1.02853025    -2.2155718729999996    -0.116479    -0.132246    0.065057
F    -2.032567972    0.012272047000000008    -2.009230106    0.075728    0.070092    -0.010482
F    1.9928595530000002    -0.528305353    0.653540552    -0.005972    -0.011881    0.011155
F    -0.083788761    1.90987479    -3.746590533    0.021053    0.047291    -0.063766
F    -0.23760141    2.113635853    -0.686902849    0.01267    0.009302    0.008772
F    2.803983657    2.163675712    -0.464392343    0.002346    0.000962    0.001873
F    1.0202290390000002    -0.041599994999999994    -1.653057554    0.013195    0.006409    0.005455
F    0.673817017    1.567732529    1.6340146389999999    -0.006657    -0.010068    0.009168
F    2.8100085690000003    0.349196976    3.4858322370000003    -0.0576    -0.02848    -0.046487
F    0.0014937750000000027    -1.129507852    2.8569303710000002    -0.075546    -0.073638    0.019033
12
Properties=species:S:1:pos:R:3:forces:R:3 energy=-187.38120264 pbc="F F F"
Al    1.42879368    -0.019696282999999995    2.3942256729999998    0.292815    0.228839    0.046818
Al    1.3468966    1.1036523999999999    -0.1400836    -0.016452    0.015695    -0.042992
Al    -0.541720962    0.99758925    -2.210371973    -0.235192    -0.264943    0.126932
F    -2.067380772    0.012887547    -1.972756606    0.148069    0.138329    -0.022446
F    2.016224853    -0.508459753    0.6638006519999999    -0.010402    -0.02517    0.021693
F    -0.088631661    1.8496952899999999    -3.763250733    0.041485    0.095666    -0.130499
F    -0.23458601    2.119711953    -0.707204649    0.024124    0.020349    0.018048
F    2.798465757    2.1649529120000004    -0.491079243    0.007673    0.004816    0.003081
F    1.0019808389999998    -0.072445395    -1.634543854    0.028492    0.011406    0.010701
F    0.6651499169999999    1.571703629    1.6200172389999998    -0.014635    -0.017916    0.018301
F    2.816098169    0.40582887599999995    3.484664037    -0.11345    -0.056986    -0.090212
F    0.039866875    -1.125548352    2.870017671    -0.152527    -0.150084    0.040575
12
Properties=species:S:1:pos:R:3:forces:R:3 energy=-187.36899706 pbc="F F F"
Al    1.29733568    0.226865117    2.488667273    0.587179    0.452052    0.108506
Al    1.1841591999999999    1.2894358    -0.0732432    -0.026784    0.037333    -0.087421
Al    -0.237598362    0.55453325    -2.375037173    -0.47932    -0.532047    0.241683
F    -1.302272372    -0.945011453    -2.338465606    0.282406    0.268827    -0.050434
F    2.148285453    -0.15046155300000003    0.807413852    -0.014667    -0.05587    0.040789
F    -0.05740546099999999    1.68659929    -3.817021133    0.080182    0.195406    -0.272789
F    -0.57307821    1.663797153    -0.7866162489999999    0.043302    0.047599    0.037956
F    2.310507957    2.719618312    -0.290534043    0.027024    0.021303    0.003038
F    1.4786024389999999    0.146228805    -1.645947454    0.06534    0.01735    0.020395
F    0.295810717    1.5665478290000001    1.6087034390000001    -0.03472    -0.027057    0.03636
F    2.4732903690000003    0.919173676    3.668913637    -0.219642    -0.113772    -0.169462
F    0.161615075    -1.1754023519999999    2.8672502709999996    -0.310299    -0.311125    0.09138
12
Properties=species:S:1:pos:R:3:forces:R:3 energy=-187.34782955 pbc="F F F"
Al    1.3568816799999999    0.255430517    2.483912873    0.883891    0.670387    0.184965
Al    1.1774558    1.2927842    -0.0892768    -0.031328    0.06466    -0.133602
Al    -0.298114762    0.53183825    -2.348282373    -0.732142    -0.801958    0.345545
F    -1.2952989719999999    -1.025379453    -2.305904606    0.402691    0.390693    -0.083143
F    2.1465970530000003    -0.14853735299999998    0.783246052    -0.012916    -0.091861    0.057042
F    -0.160292261    1.67753829    -3.800333533    0.115498    0.298693    -0.426684
F    -0.60784841    1.634527353    -0.750423849    0.057393    0.081538    0.059398
F    2.292380157    2.7279577120000003    -0.339498843    0.057516    0.049613    -0.001048
F    1.457140039    0.158838005    -1.671377054    0.110326    0.018238    0.028717
F    0.340788517    1.593020029    1.617712639    -0.060528    -0.027716    0.05402
F    2.5650925690000004    0.934316476    3.624351237    -0.318078    -0.169734    -0.237962
F    0.205942275    -1.1321733520000001    2.9088148709999997    -0.472324    -0.482552    0.152751
12
Properties=species:S:1:pos:R:3:forces:R:3 energy=-187.31648250 pbc="F F F"
Al    1.41455668    0.286773917    2.4804924730000004    1.183608    0.88477    0.275651
Al    1.1718043999999999    1.2945555999999998    -0.1058784    -0.030564    0.097232    -0.181753
Al    -0.360293162    0.51061925    -2.320898573    -0.993003    -1.075174    0.440105
F    -1.2944315720000001    -1.098735453    -2.270944606    0.508691    0.503165    -0.11969
F    2.147737653    -0.145491153    0.763602252    -0.005357    -0.132842    0.070234
F    -0.255134061    1.65910429    -3.7878679330000002    0.146872    0.40499    -0.591937
F    -0.63608361    1.614068553    -0.719058449    0.066304    0.121848    0.082037
F    2.278419357    2.731240112    -0.390857643    0.09854    0.08982    -0.010065
F    1.427765639    0.163062205    -1.691339654    0.163045    0.014509    0.03527
F    0.38213731700000003    1.6192552290000002    1.622793839    -0.092224    -0.020326    0.071203
F    2.653625769    0.954606276    3.581647837    -0.408299    -0.224246    -0.295994
F    0.252565475    -1.091178352    2.949838471    -0.637613    -0.663745    0.22494
12
Properties=species:S:1:pos:R:3:forces:R:3 energy=-187.38518821 pbc="F F F"
Al    1.03577868    -0.15752768299999997    2.440703073    0.0    0.0    0.0
Al    1.3191069999999998    1.158758    -0.007469000000000003    0.0    0.0    -0.0
Al    -0.11864656200000001    1.07568125    -2.4020147730000003    0.0    0.0    -0.0
F    -1.582249172    -0.09303045300000001    -2.448946606    -0.0    -0.0    0.0
F    1.9479222530000002    -0.47409195299999995    0.783613452    0.0    -0.0    0.0
F    0.37875613900000005    2.08574829    -3.781902333    -0.0    -0.0    0.0
F    -0.23151481000000002    2.045721753    -0.774108049    -0.0    0.0    -0.0
F    2.714073557    2.330047512    -0.09489444300000002    0.0    0.0    -0.0
F    1.3351062390000001    0.106273405    -1.630145254    -0.0    -0.0    -0.0
F    0.381299117    1.465354429    1.6396510389999999    -0.0    -0.0    0.0
F    2.288534969    0.277093076    3.740351437    -0.0    -0.0    0.0
F    -0.28745232499999995    -1.3192673519999998    2.6510010709999996    -0.0    -0.0    -0.0
12
Properties=species:S:1:pos:R:3:forces:R:3 energy=-187.38120224 pbc="F F F"
Al    1.4086036800000001    -0.20527008300000002    2.348342473    -0.292147    -0.234983    -0.032289
Al    1.2070534    1.2747126    -0.025133399999999993    0.022741    -0.009674    0.04193
Al    -0.369208162    0.99678225    -2.289990573    0.226395    0.263523    -0.14007
F    -1.606113572    -0.363523453    -2.2926286059999996    -0.1614    -0.145329    0.016153
F    2.239926653    -0.256768153    0.639571252    0.01657    0.019459    -0.024015
F    -0.09553306099999999    2.13163529    -3.679433933    -0.043656    -0.091075    0.118581
F    -0.49618761    1.9163275530000001    -0.641827449    -0.028887    -0.013336    -0.015885
F    2.379245357    2.677438112    -0.14715064300000003    0.004467    0.006624    -0.005267
F    1.303520639    0.25835120500000003    -1.680570654    -0.020099    -0.017221    -0.011384
F    0.319934317    1.292595229    1.6919278389999999    0.009541    0.026829    -0.018311
F    2.557915769    0.44661727599999995    3.6126408370000003    0.12018    0.056576    0.10132
F    0.32960547500000004    -1.666087352    2.579710471    0.146295    0.138606    -0.030764
12
Properties=species:S:1:pos:R:3:forces:R:3 energy=-187.36899384 pbc="F F F"
Al    1.34154368    -0.228620483    2.356237873    -0.584528    -0.476355    -0.050825
Al    1.2133338    1.2717611999999998    -0.0083938    0.051757    -0.013428    0.083207
Al    -0.313989762    1.02914125    -2.313561373    0.444479    0.526404    -0.293857
F    -1.599507972    -0.29394745299999997    -2.333227606    -0.335658    -0.296804    0.025329
F    2.2479150530000003    -0.252717353    0.675652052    0.039248    0.033088    -0.050051
F    0.013475739000000014    2.13758529    -3.6978545329999997    -0.088841    -0.177056    0.225182
F    -0.45735641000000005    1.955173353    -0.673212849    -0.062305    -0.019653    -0.029324
F    2.398405157    2.6679677120000003    -0.09776684299999999    0.021455    0.024384    -0.011765
F    1.313836039    0.24629400499999998    -1.655389054    -0.031937    -0.040538    -0.023173
F    0.261502517    1.266219029    1.674795639    0.014412    0.062543    -0.036331
F    2.456137569    0.43996747599999997    3.6625542369999997    0.246538    0.112143    0.21383
F    0.304532275    -1.737176352    2.5254188710000003    0.285381    0.265273    -0.052222
12
Properties=species:S:1:pos:R:3:forces:R:3 energy=-187.34781888 pbc="F F F"
Al    1.27126368    -0.24823488300000002    2.365608273    -0.878002    -0.724053    -0.05679
Al    1.2216652000000001    1.2669198000000002    0.007435799999999999    0.086838    -0.011524    0.124235
Al    -0.260915362    1.06376125    -2.335804173    0.655037    0.789404    -0.461539
F    -1.590862372    -0.226655453    -2.374275606    -0.522235    -0.453559    0.026917
F    2.243168453    -0.257066553    0.7114288520000001    0.06788    0.040825    -0.077779
F    0.11905353899999999    2.14636529    -3.7147461330000002    -0.134893    -0.25746    0.319807
F    -0.41751320999999997    1.992831153    -0.6997272489999999    -0.099977    -0.019044    -0.040058
F    2.4241639569999998    2.651122312    -0.05179704299999999    0.051266    0.052904    -0.018536
F    1.323136439    0.235970805    -1.6348134539999999    -0.035802    -0.070147    -0.035151
F    0.21418571700000003    1.2512468289999998    1.659143439    0.015086    0.106933    -0.053696
F    2.364096369    0.421518676    3.707422637    0.378499    0.166118    0.337552
F    0.27008607500000004    -1.798080352    2.4748092710000003    0.416303    0.379603    -0.064963
12
Properties=species:S:1:pos:R:3:forces:R:3 energy=-187.31645785 pbc="F F F"
Al    0.9675996800000001    0.030942716999999995    2.506989673    -1.173324    -0.977664    -0.05175
Al    1.3790126    1.0818684    -0.0608686    0.127577    -0.004377    0.165387
Al    -0.092338962    0.94309825    -2.423008973    0.859113    1.053206    -0.642862
F    -1.583333772    -0.17256945299999998    -2.411323606    -0.72053    -0.614716    0.020378
F    1.729950853    -0.608943753    0.8136926520000001    0.102223    0.042671    -0.106852
F    0.407904339    1.91176429    -3.839322733    -0.181132    -0.331828    0.402533
F    -0.15575700999999997    1.998902953    -0.825637649    -0.141581    -0.011704    -0.047851
F    2.890897757    2.105733912    -0.251024243    0.094114    0.091738    -0.024619
F    1.3332648390000001    -0.023391394999999995    -1.6399668539999999    -0.032127    -0.106141    -0.047172
F    0.582979917    1.701164629    1.625180239    0.012064    0.159607    -0.069978
F    2.377911169    0.30490987599999997    3.697195037    0.515471    0.217938    0.472445
F    -0.660829125    -0.7686963520000001    2.925488671    0.538132    0.48127    -0.069659
12
Properties=species:S:1:pos:R:3:forces:R:3 energy=-187.38491426 pbc="F F F"
Al    1.34590868    -0.0025469829999999957    2.4342913729999998    -0.015959    0.016264    0.003114
Al    1.2527059999999999    1.166622    -0.078726    0.000897    0.000843    -0.000162
Al    -0.36500946199999995    0.90359265    -2.315846073    0.014661    -0.017485    -0.002877
F    -1.919975872    -0.08090545300000002    -2.147812706    -0.00521    -0.004838    0.000863
F    2.293393753    -0.251134553    0.800647652    0.008006    -0.008149    -0.011346
F    0.281296139    1.63398269    -3.899765433    0.00026    0.009073    -0.007769
F    -0.25825721    2.142579553    -0.872991549    -0.005496    0.010507    0.010891
F    2.567772557    2.402056512    -0.31671744300000004    -0.000165    -0.000155    3e-05
F    1.0708442390000001    -0.126813695    -1.490528354    -0.006181    0.003382    -0.004784
F    0.242618917    1.340285229    1.5487874389999998    0.003949    -0.005479    0.005188
F    2.3903090689999997    0.8553918760000001    3.7122374369999998    0.010378    0.000922    0.005841
F    0.279620375    -1.480577352    2.7406341710000004    -0.005139    -0.004884    0.00101
12
Properties=species:S:1:pos:R:3:forces:R:3 energy=-187.38394716 pbc="F F F"
Al    1.34396568    0.023247717    2.460233673    -0.03652    0.033234    -0.001935
Al    1.227641    1.1430740000000001    -0.07419    0.003589    0.003372    -0.000649
Al    -0.344693362    0.89505905    -2.345114373    0.031354    -0.038089    0.002875
F    -1.890266572    -0.11629145299999999    -2.227461806    -0.020265    -0.019959    0.003153
F    2.245930253    -0.283713153    0.809355852    0.021564    -0.023625    -0.025793
F    0.30728713900000004    1.68969309    -3.892009533    0.004717    0.031919    -0.032953
F    -0.29395961000000004    2.097029353    -0.866649049    -0.017348    0.027585    0.02503
F    2.546829557    2.382379512    -0.312927443    -0.000665    -0.000625    0.00012
F    1.091496239    -0.131185795    -1.5070304540000001    -0.005697    0.000379    -0.013106
F    0.242362717    1.3638180290000002    1.561598839    0.002597    -0.003291    0.013666
F    2.444643169    0.875143676    3.689944437    0.037744    0.007973    0.025265
F    0.261271075    -1.434515352    2.8182292710000003    -0.02107    -0.018873    0.004327
12
Properties=species:S:1:pos:R:3:forces:R:3 energy=-187.37791525 pbc="F F F"
Al    1.17737968    0.07543711700000001    2.398669273    -0.092658    0.071314    -0.035171
Al    1.377406    1.283775    -0.10129300000000001    0.014404    0.013532    -0.002606
Al    -0.28922716200000004    0.73847385    -2.263439973    0.072509    -0.090248    0.038827
F    -1.314010972    -0.788327453    -2.147379006    -0.077438    -0.083084    0.010787
F    1.782271253    -0.452320353    0.653481252    0.062608    -0.077948    -0.063851
F    -0.402937861    2.00910589    -3.6453907329999997    0.021934    0.122764    -0.132432
F    -0.45041441    1.683072953    -0.598550049    -0.061632    0.078866    0.063674
F    2.672042557    2.500024512    -0.33558744300000004    -0.002727    -0.002562    0.000494
F    1.544471239    0.341331005    -1.823793654    0.017187    -0.022609    -0.041152
F    0.7857763170000001    1.827359629    1.698043639    -0.013642    0.025939    0.040509
F    2.679975369    0.10959527600000002    3.529269437    0.146418    0.035399    0.101957
F    -0.38763152500000003    -0.8307473519999999    2.751290471    -0.086964    -0.071363    0.018965
12
Properties=species:S:1:pos:R:3:forces:R:3 energy=-187.36028473 pbc="F F F"
Al    1.15413068    0.06098251699999999    2.3698018729999997    -0.170051    0.118176    -0.096464
Al    1.4158719999999998    1.319912    -0.108254    0.032577    0.030605    -0.005895
Al    -0.29897996200000004    0.7219246500000001    -2.228599573    0.126643    -0.158964    0.104333
F    -1.297728372    -0.818967453    -2.054849206    -0.166185    -0.192741    0.020339
F    1.7971912529999998    -0.433360553    0.631520652    0.117516    -0.165182    -0.113714
F    -0.45743286099999997    1.96192669    -3.644195933    0.042985    0.278711    -0.290927
F    -0.42700421    1.7001205529999999    -0.5835260489999999    -0.135356    0.148422    0.116942
F    2.704531557    2.530546512    -0.34146744300000004    -0.006385    -0.005998    0.001156
F    1.562772239    0.37786680500000003    -1.832639854    0.072016    -0.064325    -0.08542
F    0.8240999170000001    1.844019229    1.6966424390000001    -0.043775    0.090856    0.080307
F    2.631059569    0.05962287599999999    3.5467894369999997    0.330277    0.071959    0.223364
F    -0.43445512500000005    -0.8287973519999999    2.6642866709999997    -0.200263    -0.151519    0.045977
12
Properties=species:S:1:pos:R:3:forces:R:3 energy=-187.32009463 pbc="F F F"
Al    1.13169568    0.059357916999999996    2.355256473    -0.268969    0.177353    -0.181902
Al    1.437457    1.340189    -0.11216000000000001    0.058271    0.054744    -0.010545
Al    -0.29881776200000004    0.70262645    -2.210024173    0.196468    -0.245476    0.195041
F    -1.2754337720000002    -0.856604453    -2.017293406    -0.280686    -0.35106    0.029139
F    1.7859292530000002    -0.432547753    0.6140460520000001    0.180587    -0.286564    -0.174669
F    -0.478911861    1.9477324900000001    -3.633148133    0.059371    0.503325    -0.499279
F    -0.42340201    1.6921111530000001    -0.564665049    -0.240123    0.230633    0.185443
F    2.723208557    2.548092512    -0.344848443    -0.01198    -0.011254    0.002168
F    1.582382239    0.40452260500000004    -1.845092054    0.161344    -0.119831    -0.146669
F    0.8534705170000001    1.8633768290000001    1.700230239    -0.082701    0.193712    0.132434
F    2.614096769    0.03770347599999996    3.542699437    0.590714    0.107409    0.381616
F    -0.477489725    -0.8106403520000001    2.6304828710000003    -0.362296    -0.25299    0.087222
12
Properties=species:S:1:pos:R:3:forces:R:3 energy=-187.38518821 pbc="F F F"
Al    1.2233016799999998    0.118142317    2.4751990729999997    0.0    0.0    0.0
Al    1.276784    1.189243    -0.083083    0.0    0.0    -0.0
Al    -0.259766562    0.7665902499999999    -2.353611773    0.0    0.0    -0.0
F    -1.401343172    -0.6838784529999999    -2.361052606    -0.0    -0.0    0.0
F    1.7929592530000003    -0.48490195299999994    0.714683452    0.0    -0.0    0.0
F    -0.158867861    2.06377529    -3.687560333    -0.0    -0.0    0.0
F    -0.49346381000000006    1.685251753    -0.653896049    -0.0    0.0    -0.0
F    2.587876557    2.420946512    -0.320355443    0.0    0.0    -0.0
F    1.468075239    0.205749405    -1.777633254    -0.0    -0.0    -0.0
F    0.640675117    1.754854429    1.691967039    -0.0    -0.0    0.0
F    2.7523649690000003    0.352223076    3.5141674370000002    -0.0    -0.0    0.0
F    -0.24865632499999998    -0.886669352    2.9556190709999997    -0.0    -0.0    -0.0
12
Properties=species:S:1:pos:R:3:forces:R:3 energy=-187.38394712 pbc="F F F"
Al    1.30764068    -0.026059082999999997    2.381795473    0.019736    -0.03239    -0.031678
Al    1.325928    1.235413    -0.091976    0.003588    0.003371    -0.00065
Al    -0.379844762    0.87721445    -2.2537411730000003    -0.024916    0.027526    0.032611
F    -1.945605772    -0.046472453000000025    -1.9484824060000001    -0.021279    -0.018764    0.003692
F    2.395328253    -0.15267375299999997    0.810821052    0.003195    -0.003988    0.01335
F    0.223998139    1.44765149    -3.9319141330000003    0.01615    0.018582    -0.038993
F    -0.15908900999999998    2.233046153    -0.919559049    -0.006294    0.001077    -0.01279
F    2.628924557    2.459514512    -0.32778244300000003    -0.000665    -0.000625    0.00012
F    1.058956239    -0.123190395    -1.436704054    0.030198    -0.027865    -0.000103
F    0.235470517    1.318778829    1.498409239    -0.025981    0.031827    -0.00066
F    2.211060769    0.819502476    3.787195437    0.026315    0.02131    0.031313
F    0.274602275    -1.543815352    2.5468478709999998    -0.020047    -0.02006    0.003787
12
Properties=species:S:1:pos:R:3:forces:R:3 energy=-187.37791521 pbc="F F F"
Al    1.26244468    -0.023777483000000002    2.353700873    0.026464    -0.067644    -0.098152
Al    1.3774069999999998    1.283776    -0.10129200000000001    0.014403    0.01353    -0.002607
Al    -0.374293962    0.8376876499999999    -2.218472573    -0.04664    0.048692    0.101794
F    -1.9253193720000001    -0.075366453    -1.8242322059999998    -0.087851    -0.070916    0.016298
F    2.435055253    -0.09616255299999998    0.826216652    0.035842    -0.031771    0.014352
F    0.16747013900000002    1.34384769    -3.946914933    0.060755    0.077483    -0.152946
F    -0.10480621000000001    2.264853553    -0.951968049    -0.032294    0.035104    -0.014994
F    2.672043557    2.500024512    -0.335584443    -0.002727    -0.002562    0.000493
F    1.088175239    -0.111349195    -1.4118638540000001    0.080259    -0.086617    -0.01133
F    0.243681917    1.342102229    1.466795439    -0.079281    0.087536    0.011155
F    2.109565569    0.774850876    3.830793437    0.107605    0.080681    0.122486
F    0.22367587500000002    -1.5437083520000001    2.428141671    -0.076534    -0.083517    0.013452
12
Properties=species:S:1:pos:R:3:forces:R:3 energy=-187.36028479 pbc="F F F"
Al    1.2324756799999999    -0.030395883000000002    2.328385273    0.024566    -0.108842    -0.199357
Al    1.415873    1.319912    -0.108253    0.032575    0.030601    -0.005896
Al    -0.377327162    0.81330185    -2.1871849730000004    -0.068014    0.068029    0.207207
F    -1.911387972    -0.10326145299999999    -1.730457006    -0.202425    -0.150441    0.039505
F    2.4585012529999997    -0.06215335299999997    0.832679252    0.101846    -0.078975    0.003331
F    0.11305213900000001    1.2965768899999999    -3.945761733    0.140181    0.165346    -0.342295
F    -0.07162741    2.284040953    -0.968678049    -0.0736    0.105511    -0.008442
F    2.704532557    2.530546512    -0.34146344300000003    -0.006385    -0.005998    0.001155
F    1.1149292389999998    -0.098202995    -1.3986086539999998    0.145194    -0.178775    -0.031358
F    0.255257317    1.364963629    1.4466026390000002    -0.163031    0.162018    0.034589
F    2.0605713690000003    0.7249692759999999    3.848355437    0.233094    0.185324    0.274754
F    0.179205475    -1.544503352    2.339894471    -0.164    -0.193797    0.026809
12
Properties=species:S:1:pos:R:3:forces:R:3 energy=-187.32009491 pbc="F F F"
Al    1.21977768    -0.043376282999999995    2.308693673    0.018663    -0.15816    -0.333969
Al    1.437457    1.340189    -0.11216000000000001    0.058269    0.054739    -0.010547
Al    -0.38690136199999997    0.8053590500000001    -2.1634623729999998    -0.091217    0.090003    0.347082
F    -1.924203572    -0.099949453    -1.6743388060000002    -0.366542    -0.250884    0.074536
F    2.4841602529999998    -0.03847015300000001    0.8382278519999999    0.204182    -0.140871    -0.019215
F    0.099728139    1.27287109    -3.939025533    0.259186    0.270274    -0.604891
F    -0.04830760999999997    2.3063703529999997    -0.9830920489999999    -0.125533    0.214758    0.004982
F    2.723210557    2.548091512    -0.344843443    -0.01198    -0.011255    0.002168
F    1.1162792389999998    -0.10358479500000001    -1.3785574539999998    0.219889    -0.305867    -0.057723
F    0.24624771699999998    1.363150029    1.427936839    -0.279422    0.24994    0.0685
F    2.0354541690000003    0.712561676    3.848575437    0.390915    0.34046    0.487255
F    0.17128207500000003    -1.567296352    2.2875312709999998    -0.27641    -0.353138    0.041822
12
Properties=species:S:1:pos:R:3:forces:R:3 energy=-187.37458462 pbc="F F F"
Al    1.24482218    0.051375617    2.427841673    -0.003524    0.016608    0.006382
Al    1.1161084    1.4447316    0.013093899999999992    -0.115568    0.10961    0.056935
Al    -0.339751062    0.82978955    -2.2871951729999997    -0.004974    0.017319    0.002072
F    -1.4190067720000001    -0.681235253    -2.365019406    0.044957    -0.06338    -0.023037
F    1.6716116530000003    -0.350532053    0.629044352    -0.050746    -0.032922    -0.014187
F    0.061404138999999996    1.79927569    -3.769527133    0.003096    -0.003482    -0.001671
F    -0.33836890999999997    2.282114553    -0.9420636490000001    0.024049    0.052324    -0.02691
F    2.7941593570000003    2.216552212    -0.42342424300000003    0.051412    -0.033907    -0.022876
F    1.023748039    -0.03227319499999999    -1.298726554    -0.035532    -0.040395    0.031079
F    0.594326317    1.8239317290000001    1.833256239    0.04024    0.04437    0.021268
F    2.5346759690000003    0.584294476    3.589913637    0.003129    -0.003498    -0.001573
F    0.278202075    -1.5149811519999998    2.685170271    0.043462    -0.062647    -0.027483
12
Properties=species:S:1:pos:R:3:forces:R:3 energy=-187.34273382 pbc="F F F"
Al    1.21191768    0.041640917    2.403277273    0.004792    0.044576    0.015464
Al    1.1401498    1.4883232    0.012210799999999994    -0.256375    0.198462    0.118925
Al    -0.352604562    0.81020485    -2.252094573    -0.00094    0.047389    -0.001582
F    -1.409820372    -0.7140350529999999    -2.377399206    0.080486    -0.13742    -0.039485
F    1.631632053    -0.343487153    0.6074982520000001    -0.094153    -0.074546    -0.031461
F    0.075572139    1.78932609    -3.726771933    0.006355    -0.00689    -0.003496
F    -0.32007301    2.304619353    -0.9403372489999999    0.040029    0.111281    -0.05256
F    2.824538157    2.222095912    -0.43271904299999997    0.129172    -0.046823    -0.051141
F    1.0050748390000002    -0.035695795    -1.256871854    -0.064207    -0.089257    0.057641
F    0.610169517    1.847641029    1.827686439    0.073912    0.094636    0.048263
F    2.519864969    0.588580876    3.546439837    0.006487    -0.006955    -0.003104
F    0.289674475    -1.548903952    2.679592471    0.074442    -0.134454    -0.057464
12
Properties=species:S:1:pos:R:3:forces:R:3 energy=-187.21482057 pbc="F F F"
Al    1.09274468    0.014669517    2.301917473    0.053378    0.14139    0.042389
Al    1.2510146    1.5225134    -0.019402399999999997    -0.617762    0.320488    0.260522
Al    -0.391041562    0.7435724499999999    -2.113219373    0.031566    0.1521    -0.022495
F    -1.449713572    -0.754850653    -2.258830806    0.12419    -0.314998    -0.050883
F    1.637709853    -0.344659353    0.5619200520000001    -0.157258    -0.184285    -0.079258
F    0.260152139    1.8397218899999999    -3.4755595329999998    0.013691    -0.013745    -0.007769
F    -0.32884421    2.238624953    -0.8203984489999999    0.046127    0.243377    -0.104527
F    2.8918057569999998    2.262878312    -0.448592643    0.367936    -0.01996    -0.126947
F    1.0367024390000001    -0.04941899500000001    -1.226423454    -0.097312    -0.213733    0.099106
F    0.526009917    1.818679629    1.723300839    0.122292    0.205962    0.122109
F    2.5246959689999997    0.727277676    3.2627892370000002    0.014222    -0.014005    -0.00619
F    0.183817275    -1.5573135519999999    2.6018798710000004    0.098924    -0.302591    -0.126055
12
Properties=species:S:1:pos:R:3:forces:R:3 energy=-186.99977922 pbc="F F F"
Al    1.06919368    0.016905116999999997    2.293296673    0.135159    0.299855    0.082634
Al    1.2578293999999999    1.5461996    -0.0177826    -1.085826    0.387438    0.428878
Al    -0.404629562    0.7409130500000001    -2.092189173    0.088839    0.322602    -0.055169
F    -1.418953772    -0.7924782530000001    -2.265849406    0.133038    -0.532318    -0.037122
F    1.594695653    -0.33889455300000004    0.549206852    -0.188786    -0.33028    -0.150418
F    0.267748139    1.84971369    -3.443180133    0.022579    -0.020824    -0.012768
F    -0.32383941    2.2688225529999997    -0.8194566489999999    0.019784    0.39092    -0.160747
F    2.9345173570000003    2.214934712    -0.470861243    0.721034    0.057433    -0.232835
F    1.0102650389999999    -0.051796194999999996    -1.189812054    -0.094852    -0.376425    0.129076
F    0.532408317    1.848194229    1.728385239    0.148667    0.327606    0.222758
F    2.512670969    0.746908476    3.236788637    0.023608    -0.021328    -0.00971
F    0.208959075    -1.592182152    2.578143271    0.076756    -0.504678    -0.204578
12
Properties=species:S:1:pos:R:3:forces:R:3 energy=-186.69055769 pbc="F F F"
Al    1.06492868    0.019032716999999998    2.304472873    0.233236    0.515787    0.141252
Al    1.2356091999999999    1.5973518    -0.0018707999999999997    -1.650428    0.438398    0.627038
Al    -0.414430562    0.74575965    -2.097486973    0.153941    0.554731    -0.094663
F    -1.353600972    -0.852518853    -2.326591006    0.108947    -0.800188    -0.014508
F    1.491692453    -0.33094975299999996    0.532539652    -0.193616    -0.513196    -0.250185
F    0.218925139    1.83223849    -3.471451733    0.033279    -0.027793    -0.017434
F    -0.28970461000000003    2.3608991529999996    -0.873558849    -0.027336    0.564538    -0.215509
F    2.975683957    2.1530941120000002    -0.494904843    1.18733    0.159015    -0.372772
F    0.938266639    -0.059082394999999996    -1.1142236540000001    -0.057714    -0.579958    0.154189
F    0.600633717    1.923522829    1.7757246389999999    0.16006    0.47248    0.342107
F    2.488484969    0.7173312759999999    3.281828037    0.034261    -0.028274    -0.014516
F    0.291327875    -1.660580752    2.568035671    0.018038    -0.755539    -0.285
12
Properties=species:S:1:pos:R:3:forces:R:3 energy=-187.38518821 pbc="F F F"
Al    1.29308668    0.036752317    2.438310073    0.0    0.0    0.0
Al    1.45455    0.981917    -0.177052    0.0    0.0    -0.0
Al    -0.308642562    0.8235932499999999    -2.3277747730000002    0.0    0.0    -0.0
F    -1.909690172    -0.09100045300000004    -2.092333606    -0.0    -0.0    0.0
F    2.4129202530000002    -0.34347495299999997    0.860982452    0.0    -0.0    0.0
F    0.042152139    1.8293272900000002    -3.793821333    -0.0    -0.0    0.0
F    -0.36313881000000003    1.6088257529999999    -0.599285049    -0.0    0.0    -0.0
F    2.413688557    2.624099512    -0.22827744300000002    0.0    0.0    -0.0