********************************************************************************
*                       GENERAL UTILITY LATTICE PROGRAM                        *
*                                 Julian Gale                                  *
*                       Curtin Institute for Computation                       *
*                           Department of Chemistry                            *
*                    Curtin University, Western Australia                      *
********************************************************************************
* Version = 5.1.1 * Last modified =  11th January 2019                         *
********************************************************************************
*  single       - perform a single point run                                   *
*  phonon       - calculate phonons for final geometry                         *
*  eigenvectors - output phonon eigenvectors                                   *
********************************************************************************

  Job Started  at 10:29.43 17th May        2022                               

  Number of CPUs =     1

  Host name      = login04                                 


  Total number of configurations input =      1

********************************************************************************
*  Input for Configuration =   1                                               *
********************************************************************************

  Formula = Al3F9                                                       

  Number of irreducible atoms/shells =      21


  Total number atoms/shells =      21

  Dimensionality = 0               :  Cluster


  Charge on cluster =  -0.000000


  Initial cluster dipoles : x =     -0.218666 e.Angs
                            y =     -0.205425 e.Angs
                            z =      0.039573 e.Angs

  Temperature of configuration =  0.000     K 

  Symmetry number =      1

  Cartesian coordinates of cluster :

--------------------------------------------------------------------------------
   No.  Atomic       x           y          z         Charge      Occupancy
        Label      (Angs)      (Angs)     (Angs)        (e)         (Frac)  
--------------------------------------------------------------------------------
      1 Al    c      1.2826      0.0489      2.4438     3.00000    1.000000    
      2 Al    c      1.2768      1.1892     -0.0831     3.00000    1.000000    
      3 Al    c     -0.3191      0.8358     -2.3222     3.00000    1.000000    
      4 F     c     -1.6706     -0.3699     -2.2187     0.59000    1.000000    
      5 F     c      2.0632     -0.3521      0.7559     0.59000    1.000000    
      6 F     c      0.0496      1.8207     -3.7977     0.59000    1.000000    
      7 F     c     -0.3590      1.9326     -0.7684     0.59000    1.000000    
      8 F     c      2.5879      2.4209     -0.3204     0.59000    1.000000    
      9 F     c      1.2628      0.0411     -1.6257     0.59000    1.000000    
     10 F     c      0.4413      1.5394      1.6133     0.59000    1.000000    
     11 F     c      2.5439      0.5953      3.6244     0.59000    1.000000    
     12 F     c      0.0206     -1.2006      2.8133     0.59000    1.000000    
     13 F     s     -1.6706     -0.3699     -2.2187    -1.59000    1.000000    
     14 F     s      2.0632     -0.3521      0.7559    -1.59000    1.000000    
     15 F     s      0.0496      1.8207     -3.7977    -1.59000    1.000000    
     16 F     s     -0.3590      1.9326     -0.7684    -1.59000    1.000000    
     17 F     s      2.5879      2.4209     -0.3204    -1.59000    1.000000    
     18 F     s      1.2628      0.0411     -1.6257    -1.59000    1.000000    
     19 F     s      0.4413      1.5394      1.6133    -1.59000    1.000000    
     20 F     s      2.5439      0.5953      3.6244    -1.59000    1.000000    
     21 F     s      0.0206     -1.2006      2.8133    -1.59000    1.000000    
--------------------------------------------------------------------------------


  Brillouin zone sampling points :

--------------------------------------------------------------------------------
  Point number          x          y          z            Weight
--------------------------------------------------------------------------------
        1           0.000000   0.000000   0.000000     1.00000000
--------------------------------------------------------------------------------


********************************************************************************
*  General input information                                                   *
********************************************************************************

  Species output for all configurations : 

--------------------------------------------------------------------------------
  Species    Type    Atomic    Atomic    Charge       Radii (Angs)     Library
                     Number     Mass       (e)     Cova   Ionic  VDW   Symbol
--------------------------------------------------------------------------------
    Al       Core       13      26.98   3.000000   1.350  0.000  2.050          
    F        Core        9      19.00   0.590000   0.710  0.000  1.300          
    F        Shell       9       0.00  -1.590000   0.710  0.000  1.300          
--------------------------------------------------------------------------------


  Accuracy factor for short range sums = 12.000

  Time limit = Infinity

  Maximum range for interatomic potentials =    100000.000000 Angstroms

  General interatomic potentials :

--------------------------------------------------------------------------------
Atom  Types   Potential      Parameter       Value         Units   Cutoffs(Ang)
  1     2                                                            Min /  Max 
--------------------------------------------------------------------------------
Al   c F    s Buckingham    Buckingham A     3760.0008    eV        0.000 10.000
                            Buckingham rho  0.22200000    Ang       
                            Buckingham C     0.0000000    eV*Ang^6  
--------------------------------------------------------------------------------
F    s F    s Buck 4 range  Buck4 A          1127.7000    eV        0.000 12.000
                            Buck4 rho       0.27530000    Ang       
                            Buck4 C          15.830000    eV*Ang^6  
                            Buck4 minimum    2.7900000    Ang       
--------------------------------------------------------------------------------
F    c F    s Spring (c-s)  Spring k 2       20.770000    eV*Ang^-2 0.000  0.800
                            Spring k 4       0.0000000    eV*Ang^-4 
--------------------------------------------------------------------------------

********************************************************************************
*  Output for configuration   1                                                *
********************************************************************************


  Components of energy : 

--------------------------------------------------------------------------------
  Interatomic potentials     =          10.51497322 eV    
  Monopole - monopole (real) =        -178.81669546 eV    
--------------------------------------------------------------------------------
  Total lattice energy       =        -168.30172224 eV    
--------------------------------------------------------------------------------
  Total lattice energy       =          -16238.5435 kJ/mol
--------------------------------------------------------------------------------

  Born effective charge tensors : 

-------------------------------------------------------------------------------
  Atom             x           y             z
-------------------------------------------------------------------------------
    1 Al    x       2.0090      0.1963      0.1391
            y       0.2107      1.9719     -0.1867
            z       0.1072     -0.2140      2.3815
-------------------------------------------------------------------------------
    2 Al    x       2.0844     -0.0562      0.1514
            y      -0.0562      2.0514     -0.0655
            z       0.1514     -0.0655      2.5009
-------------------------------------------------------------------------------
    3 Al    x       2.0765      0.2258      0.2014
            y       0.2114      1.9408     -0.1168
            z       0.2333     -0.0894      2.3452
-------------------------------------------------------------------------------
    4 F     x      -0.8907     -0.3349     -0.0398
            y      -0.3097     -0.7443     -0.0007
            z      -0.0953     -0.0484     -0.5528
-------------------------------------------------------------------------------
    5 F     x      -0.5118      0.2377     -0.0161
            y       0.2114     -0.6702      0.1121
            z       0.0479      0.1618     -0.8992
-------------------------------------------------------------------------------
    6 F     x      -0.5221     -0.0431      0.0249
            y      -0.0598     -0.6601      0.2732
            z       0.0618      0.3049     -1.0407
-------------------------------------------------------------------------------
    7 F     x      -0.7096      0.1759     -0.1825
            y       0.2033     -0.5612     -0.0764
            z      -0.2410     -0.1320     -0.8104
-------------------------------------------------------------------------------
    8 F     x      -0.8494     -0.3548      0.0345
            y      -0.3548     -0.7955      0.0824
            z       0.0345      0.0824     -0.5706
-------------------------------------------------------------------------------
    9 F     x      -0.6436      0.1408     -0.1431
            y       0.1688     -0.5699     -0.1449
            z      -0.2068     -0.1941     -0.8678
-------------------------------------------------------------------------------
   10 F     x      -0.5014      0.2106      0.0433
            y       0.1815     -0.6178      0.0521
            z       0.1016      0.1072     -0.9620
-------------------------------------------------------------------------------
   11 F     x      -0.7858     -0.1189     -0.3066
            y      -0.1022     -0.5384     -0.0754
            z      -0.3436     -0.1071     -0.8987
-------------------------------------------------------------------------------
   12 F     x      -0.7555     -0.2794      0.0936
            y      -0.3046     -0.8067      0.1466
            z       0.1491      0.1943     -0.6256
-------------------------------------------------------------------------------




  Moment of inertia tensor (10^-46 x kgm^2): 

-------------------------------------------------------------------------------
                x           y           z           Principal axis system
-------------------------------------------------------------------------------
       x        242.22       -7.85      -55.89           79.765413
       y         -7.85      259.54       32.32          244.962766
       z        -55.89       32.32      103.88          280.915472
-------------------------------------------------------------------------------
  Centre of mass (Ang) =     0.763264     0.706817     0.009850
-------------------------------------------------------------------------------


  Vibrational Frequency Calculation : 

--------------------------------------------------------------------------------

  Frequencies (cm-1) and Eigenvectors : 

  Frequency    -329.5901 -215.3749  -67.0027  -61.4544   -0.0000   -0.0000
  IR Intensity    0.0009    0.0000    0.0006    0.0001    0.0000    0.0000
     in X         0.0003    0.0000    0.0001    0.0001    0.0000    0.0000
     in Y         0.0005    0.0000    0.0000    0.0000    0.0000    0.0000
     in Z         0.0001    0.0000    0.0006    0.0000    0.0000    0.0000
  Raman Intsty    0.0000    0.0000    0.0000    0.2524    0.0000    0.0000

     1 x       0.255618  0.365100  0.332851 -0.264716  0.034327 -0.050943
     1 y      -0.298123 -0.425811  0.289956 -0.137302  0.325415  0.009276
     1 z      -0.135123 -0.192996 -0.010064 -0.197844 -0.003929  0.323122
     2 x      -0.489584 -0.000000 -0.042061  0.363342  0.034327 -0.050943
     2 y       0.570995 -0.000000  0.020662  0.341341  0.325415  0.009276
     2 z       0.258800  0.000000 -0.125158 -0.065755 -0.003929  0.323122
     3 x       0.255618 -0.365100 -0.301062 -0.109009  0.034327 -0.050943
     3 y      -0.298124  0.425811 -0.305572 -0.213792  0.325415  0.009276
     3 z      -0.135123  0.192996  0.104657  0.265478 -0.003929  0.323122
     4 x       0.021047 -0.076939 -0.246441 -0.097647  0.028807 -0.042751
     4 y      -0.024547  0.089733 -0.233746 -0.163490  0.273083  0.007784
     4 z      -0.011126  0.040671  0.049513  0.175987 -0.003297  0.271158
     5 x      -0.039117  0.146698  0.136403  0.047003  0.028807 -0.042751
     5 y       0.020121 -0.185396  0.130622  0.085897  0.273083  0.007784
     5 z      -0.030710  0.046967 -0.045107 -0.064620 -0.003297  0.271158
     6 x       0.023929 -0.078624 -0.198658 -0.062812  0.028807 -0.042751
     6 y      -0.027908  0.091698 -0.221898 -0.154835  0.273083  0.007784
     6 z      -0.012649  0.041561  0.113766  0.222793 -0.003297  0.271158
     7 x      -0.023812 -0.184260 -0.142694  0.098553  0.028807 -0.042751
     7 y       0.034499  0.150109 -0.131574  0.050846  0.273083  0.007784
     7 z      -0.033479 -0.040169  0.005402  0.038278 -0.003297  0.271158
     8 x      -0.045515 -0.000000 -0.015616  0.276445  0.028807 -0.042751
     8 y       0.053084 -0.000000  0.007671  0.259706  0.273083  0.007784
     8 z       0.024060  0.000000 -0.046467 -0.050029 -0.003297  0.271158
     9 x      -0.011306 -0.071907 -0.148682  0.084143  0.028807 -0.042751
     9 y       0.006459  0.148655 -0.124590  0.067652  0.273083  0.007784
     9 z       0.052044  0.175582  0.008567  0.045896 -0.003297  0.271158
    10 x       0.003998  0.109469  0.130414  0.061412  0.028807 -0.042751
    10 y       0.020837 -0.113368  0.137607  0.069091  0.273083  0.007784
    10 z       0.049274 -0.182380 -0.041942 -0.072237 -0.003297  0.271158
    11 x       0.023929  0.078624  0.247961 -0.196771  0.028807 -0.042751
    11 y      -0.027908 -0.091698  0.197678 -0.089029  0.273083  0.007784
    11 z      -0.012649 -0.041561  0.032940 -0.175816 -0.003297  0.271158
    12 x       0.021047  0.076939  0.249554 -0.197956  0.028807 -0.042751
    12 y      -0.024547 -0.089733  0.232216 -0.114214  0.273083  0.007784
    12 z      -0.011126 -0.040671 -0.040249 -0.122491 -0.003297  0.271158


  Frequency       0.0000  143.1096  143.3011  147.0096  148.7150  152.2139
  IR Intensity    0.0000    0.0000    0.0003    0.0000    0.0012    0.0000
     in X         0.0000    0.0000    0.0000    0.0000    0.0007    0.0000
     in Y         0.0000    0.0000    0.0000    0.0000    0.0006    0.0000
     in Z         0.0000    0.0000    0.0003    0.0000    0.0000    0.0000
  Raman Intsty    0.0000    0.0000    0.0000    0.0000    0.7406    0.0786

     1 x      -0.321427  0.009006  0.009997  0.034856 -0.002150  0.061990
     1 y       0.033283 -0.010504  0.009954  0.047014  0.045581  0.048290
     1 z      -0.051632 -0.004761 -0.003051 -0.037789 -0.104633  0.010726
     2 x      -0.321427  0.000000 -0.004187  0.014174 -0.105556 -0.082836
     2 y       0.033283  0.000000  0.002057 -0.006963 -0.099164 -0.077821
     2 z      -0.051632 -0.000000 -0.012458  0.042175  0.019103  0.014991
     3 x      -0.321427 -0.009006 -0.010783 -0.054802  0.064392  0.048086
     3 y       0.033283  0.010504 -0.009568 -0.037215  0.012893  0.055121
     3 z      -0.051632  0.004761  0.000710 -0.021563  0.093369 -0.030646
     4 x      -0.269736  0.054984  0.109998 -0.129210  0.146075  0.211539
     4 y       0.027931 -0.064127 -0.088089  0.016595 -0.044585 -0.043461
     4 z      -0.043328 -0.029065  0.402439 -0.281047  0.374704  0.496066
     5 x      -0.269736 -0.358722 -0.220843 -0.053747 -0.092053  0.103157
     5 y       0.027931 -0.208284 -0.144109 -0.051183 -0.102385  0.060911
     5 z      -0.043328 -0.132020 -0.079416 -0.044237 -0.044545  0.022407
     6 x      -0.269736 -0.206737 -0.297518 -0.030489  0.369173 -0.282883
     6 y       0.027931  0.241114 -0.166962 -0.020240  0.182278 -0.128284
     6 z      -0.043328  0.109283 -0.194456 -0.013022  0.296219 -0.252112
     7 x      -0.269736 -0.195236  0.136126  0.044226 -0.096090  0.060079
     7 y       0.027931 -0.312131  0.191245  0.040858 -0.074366  0.092441
     7 z      -0.043328  0.232272 -0.144018 -0.061967  0.078594 -0.051949
     8 x      -0.269736  0.000000  0.048733  0.275000 -0.118419 -0.069852
     8 y       0.027931  0.000000 -0.023940 -0.135092 -0.111248 -0.065623
     8 z      -0.043328  0.000000  0.145009  0.818288  0.021431  0.012641
     9 x      -0.269736  0.230102  0.144302  0.022003 -0.057521  0.075439
     9 y       0.027931  0.271469  0.181710  0.066776 -0.119348  0.074526
     9 z      -0.043328 -0.250702 -0.148340 -0.050219  0.058206 -0.060068
    10 x      -0.269736  0.323857 -0.212668 -0.075970 -0.130621  0.087796
    10 y       0.027931  0.248947 -0.153645 -0.025264 -0.057402  0.078825
    10 z      -0.043328  0.150451 -0.083738 -0.032489 -0.024157  0.030527
    11 x      -0.269736  0.206737  0.140195  0.018743  0.139158 -0.090709
    11 y       0.027931 -0.241114  0.244246  0.026011  0.295272 -0.222687
    11 z      -0.043328 -0.109283 -0.273670 -0.021932 -0.388213  0.319722
    12 x      -0.269736 -0.054984  0.157601 -0.063677 -0.108088 -0.127025
    12 y       0.027931  0.064127 -0.043368  0.078160  0.080271  0.122857
    12 z      -0.043328  0.029065  0.393825 -0.292907 -0.381579 -0.511361


  Frequency     152.6667  157.8489  159.7957  161.4397  175.9260  179.9704
  IR Intensity    0.0000    0.0000    0.0000    0.0000    0.0149    0.0000
     in X         0.0000    0.0000    0.0000    0.0000    0.0015    0.0000
     in Y         0.0000    0.0000    0.0000    0.0000    0.0004    0.0000
     in Z         0.0000    0.0000    0.0000    0.0000    0.0131    0.0000
  Raman Intsty    0.0000    0.0000    0.0000    0.0000    0.0000    0.0000

     1 x      -0.002618  0.014011  0.014413  0.025879 -0.094092  0.023588
     1 y       0.003054 -0.016340 -0.016810 -0.030182 -0.095518 -0.027510
     1 z       0.001384 -0.007406 -0.007619 -0.013680  0.032745 -0.012469
     2 x       0.007214  0.000000 -0.025268  0.000000  0.053835 -0.048018
     2 y      -0.008414  0.000000  0.029469  0.000000 -0.026446  0.056003
     2 z      -0.003814 -0.000000  0.013357 -0.000000  0.160192  0.025383
     3 x      -0.002618 -0.014011  0.014413 -0.025879  0.104050  0.023588
     3 y       0.003054  0.016340 -0.016810  0.030182  0.090626 -0.027510
     3 z       0.001384  0.007406 -0.007619  0.013680 -0.003114 -0.012469
     4 x       0.278504  0.411643  0.109893  0.026243  0.067262 -0.146855
     4 y      -0.324815 -0.480094 -0.128167 -0.030607  0.130538  0.171275
     4 z      -0.147220 -0.217600 -0.058091 -0.013873 -0.160766  0.077629
     5 x       0.214464  0.109573 -0.149640 -0.130674  0.194524  0.292402
     5 y       0.162363 -0.058584 -0.111654 -0.246547  0.051968  0.230345
     5 z       0.025324  0.094986 -0.014412  0.019074  0.177194  0.055870
     6 x      -0.174096 -0.035202 -0.287167  0.358875 -0.372104 -0.019185
     6 y       0.203046  0.041055  0.334919 -0.418551 -0.170694  0.022376
     6 z       0.092029  0.018608  0.151800 -0.189705 -0.327323  0.010142
     7 x      -0.163973 -0.070575  0.113424 -0.251241 -0.026095 -0.228336
     7 y      -0.193159  0.095221  0.135481 -0.112243 -0.155292 -0.258861
     7 z       0.093811 -0.102043 -0.062020  0.050042  0.217120  0.150109
     8 x      -0.228925  0.000000  0.368189  0.000000 -0.007678  0.341842
     8 y       0.266992  0.000000 -0.429414  0.000000  0.003771 -0.398685
     8 z       0.121013 -0.000000 -0.194629 -0.000000 -0.022847 -0.180702
     9 x       0.172850 -0.026171 -0.122365  0.140025 -0.056589  0.223958
     9 y       0.182806  0.017613 -0.125053  0.241953 -0.119726  0.263969
     9 z      -0.098503  0.153184  0.066746  0.008748  0.233240 -0.147795
    10 x      -0.205587 -0.012827  0.140699  0.241891  0.164028 -0.296782
    10 y      -0.172716 -0.054250  0.122082  0.116837  0.087533 -0.225239
    10 z      -0.030016 -0.146127  0.019139 -0.077864  0.193314 -0.053555
    11 x      -0.174097  0.035201 -0.287167 -0.358875  0.122045 -0.019185
    11 y       0.203046 -0.041055  0.334918  0.418551  0.293534  0.022375
    11 z       0.092029 -0.018608  0.151800  0.189705 -0.416751  0.010142
    12 x       0.278504 -0.411644  0.109893 -0.026243 -0.161411 -0.146855
    12 y      -0.324815  0.480093 -0.128167  0.030607 -0.084288  0.171275
    12 z      -0.147221  0.217600 -0.058091  0.013873 -0.119382  0.077629


  Frequency     193.3913  193.4162  223.5035  256.9229  288.2316  302.9784
  IR Intensity    0.0156    0.0222    0.0112    0.0000    0.0087    0.0000
     in X         0.0059    0.0022    0.0059    0.0000    0.0046    0.0000
     in Y         0.0080    0.0005    0.0052    0.0000    0.0040    0.0000
     in Z         0.0017    0.0195    0.0002    0.0000    0.0001    0.0000
  Raman Intsty    0.0000    0.0000    0.0444    0.0000    2.9278    0.0000

     1 x      -0.104215  0.106313 -0.093930 -0.005353 -0.008715 -0.234830
     1 y       0.121559  0.025718 -0.097698  0.006244  0.118349  0.273878
     1 z       0.055109  0.144325  0.037860  0.002830 -0.277603  0.124134
     2 x      -0.060128  0.038930 -0.195079  0.000000 -0.067941  0.000000
     2 y       0.070129 -0.019128 -0.183267  0.000000 -0.063827  0.000000
     2 z       0.031797  0.115819  0.035304 -0.000000  0.012295 -0.000000
     3 x      -0.104226 -0.002656 -0.107148  0.005354  0.168174  0.234830
     3 y       0.121550 -0.076652 -0.091204 -0.006244  0.031454 -0.273878
     3 z       0.055111  0.164046 -0.001471 -0.002830  0.248746 -0.124134
     4 x       0.214332 -0.148716 -0.157391 -0.049269  0.186375 -0.088936
     4 y      -0.249987  0.017404 -0.123562  0.057462  0.229208  0.103725
     4 z      -0.113336 -0.319631 -0.025126  0.026044 -0.153133  0.047013
     5 x      -0.179886 -0.214597  0.311809 -0.162923  0.057733  0.210172
     5 y       0.223032 -0.230618  0.175447  0.027501 -0.017553 -0.327524
     5 z       0.077157  0.105868  0.137612  0.465552 -0.198782  0.065114
     6 x       0.209981 -0.103421  0.099526 -0.045392 -0.171160 -0.091685
     6 y      -0.244924 -0.151097  0.002843  0.052940 -0.253548  0.106931
     6 z      -0.110990  0.137821  0.182007  0.023995  0.235616  0.048466
     7 x      -0.196257  0.255728  0.159892 -0.068203  0.022898 -0.324309
     7 y       0.207653  0.211228  0.267692 -0.244632  0.093302  0.220299
     7 z       0.080120  0.020751 -0.222977 -0.423724  0.184190 -0.044458
     8 x       0.199937 -0.110460 -0.262835  0.000000 -0.246742 -0.000001
     8 y      -0.233190  0.054276 -0.246919  0.000000 -0.231801 -0.000000
     8 z      -0.105726 -0.328616  0.047566 -0.000000  0.044654  0.000000
     9 x      -0.167978  0.256967  0.185992  0.402408  0.161768 -0.098276
     9 y       0.217247  0.209777  0.237253 -0.145148 -0.068660  0.272556
     9 z       0.112449  0.020092 -0.236773  0.247060  0.110782  0.267841
    10 x      -0.184439 -0.213354  0.285710 -0.171283 -0.081137  0.212413
    10 y       0.201782 -0.232064  0.205886  0.362278  0.144408 -0.165330
    10 z       0.115428  0.105207  0.151407 -0.288887 -0.125374 -0.288497
    11 x       0.210008  0.178841 -0.027205  0.045392 -0.300820  0.091685
    11 y      -0.244898  0.114074  0.065099 -0.052940 -0.189853 -0.106931
    11 z      -0.110995  0.086740 -0.195095 -0.023995 -0.150200 -0.048466
    12 x       0.214339 -0.070899 -0.123423  0.049269  0.262029  0.088937
    12 y      -0.249980  0.090509 -0.140248 -0.057461  0.192044 -0.103725
    12 z      -0.113338 -0.333713  0.075946 -0.026044  0.071984 -0.047013


  Frequency     328.1040  364.2194  365.8750  368.9196  375.7975  394.1013
  IR Intensity    0.0076    0.1048    0.0333    0.0115    0.0149    0.7072
     in X         0.0007    0.0104    0.0126    0.0060    0.0078    0.0700
     in Y         0.0002    0.0025    0.0171    0.0053    0.0069    0.0169
     in Z         0.0066    0.0919    0.0035    0.0002    0.0003    0.6202
  Raman Intsty    0.0000    0.0000    0.0000    1.0192    4.5016    0.0000

     1 x      -0.000143  0.007116 -0.039656  0.000817 -0.006984  0.042121
     1 y      -0.062414  0.041563  0.046250 -0.030866  0.016928  0.179507
     1 z       0.137436 -0.078239  0.020963  0.069646 -0.050560 -0.316367
     2 x      -0.025994 -0.057743 -0.100926 -0.033260  0.089539 -0.157753
     2 y       0.012769  0.028366  0.117708 -0.031246  0.084118  0.077495
     2 z      -0.077348 -0.171817  0.053351  0.006019 -0.016204 -0.469408
     3 x       0.087206 -0.055873 -0.039656 -0.043404  0.025852 -0.237742
     3 y       0.019645 -0.017611  0.046250 -0.009142  0.000798 -0.083409
     3 z       0.121628 -0.066840  0.020963 -0.061938  0.047145 -0.265720
     4 x       0.243437  0.236660  0.026202  0.144542 -0.187636  0.120254
     4 y       0.243363  0.208468 -0.030560  0.129411 -0.164575  0.090816
     4 z      -0.076416 -0.012247 -0.013851 -0.012084  0.008145  0.027121
     5 x      -0.162954  0.231697  0.079771  0.198602  0.217817 -0.080191
     5 y       0.285189 -0.262865 -0.195220 -0.316062 -0.234683 -0.002464
     5 z      -0.075938 -0.154435  0.441678  0.198244 -0.263614  0.315824
     6 x      -0.115619 -0.055387  0.023629 -0.036999  0.048517  0.021962
     6 y      -0.212754 -0.154232 -0.027557 -0.100905  0.143698  0.001686
     6 z       0.250683  0.235508 -0.012491  0.152636 -0.225262  0.037825
     7 x      -0.286912  0.218438  0.271447 -0.338734 -0.170773  0.065646
     7 y       0.168737 -0.275321 -0.015150  0.184415  0.278878  0.134542
     7 z      -0.053505 -0.152035  0.406990 -0.172884  0.255100  0.289431
     8 x       0.011760  0.003775  0.003013  0.256945 -0.098549  0.022579
     8 y      -0.005777 -0.001855 -0.003514  0.241386 -0.092582 -0.011092
     8 z       0.034992  0.011234 -0.001593 -0.046500  0.017835  0.067187
     9 x       0.058152 -0.251253 -0.215395  0.011635  0.307224  0.250720
     9 y      -0.233706  0.272471 -0.050222 -0.224215 -0.278604 -0.081307
     9 z      -0.235909  0.096245 -0.436619 -0.358094  0.002425  0.191600
    10 x       0.182110 -0.237993 -0.023719 -0.151767 -0.260181  0.104883
    10 y      -0.117254  0.284928  0.129847  0.092568  0.322798 -0.218314
    10 z      -0.258342  0.093845 -0.471307  0.383454 -0.010939  0.217992
    11 x       0.261194  0.198254  0.023628 -0.129467  0.185680  0.004523
    11 y       0.141241  0.084050 -0.027558 -0.055481  0.076318 -0.014697
    11 z       0.182490  0.189606 -0.012491 -0.122510  0.182879  0.040981
    12 x      -0.263940 -0.217283  0.026203  0.135624 -0.171281 -0.089281
    12 y      -0.233291 -0.217987 -0.030559  0.133791 -0.172609 -0.106031
    12 z       0.015406  0.069904 -0.013851 -0.038619  0.056809  0.065041


  Frequency     431.8601  435.6326  470.6958  483.3560  533.6443  587.2576
  IR Intensity    0.0547    0.5117    0.1903    0.7022    0.0109    0.0052
     in X         0.0286    0.1939    0.0188    0.3666    0.0057    0.0005
     in Y         0.0252    0.2637    0.0045    0.3236    0.0050    0.0001
     in Z         0.0009    0.0542    0.1669    0.0120    0.0002    0.0046
  Raman Intsty    0.0627    0.0000    0.0000    0.0464    1.0794    0.0000

     1 x       0.129665 -0.265146 -0.407188  0.379765 -0.103752  0.009394
     1 y       0.037530  0.309236 -0.261482  0.347457  0.151048  0.193393
     1 z       0.162490  0.140159 -0.193386 -0.048180 -0.529534 -0.408914
     2 x      -0.416278 -0.285968 -0.021522  0.139950 -0.267405  0.229536
     2 y      -0.391072  0.333520  0.010573  0.131475 -0.251213 -0.112758
     2 z       0.075335  0.151166 -0.064042 -0.025327  0.048393  0.683005
     3 x       0.011844 -0.265146  0.237969  0.366747  0.243658 -0.267405
     3 y       0.095409  0.309236  0.344609  0.353852 -0.019615 -0.066646
     3 z      -0.188099  0.140159 -0.310142 -0.086918  0.504215 -0.358821
     4 x      -0.093235  0.050675 -0.223878 -0.254203 -0.081644  0.084242
     4 y      -0.089739 -0.059102 -0.213789 -0.234411 -0.048522  0.062395
     4 z       0.021616 -0.026788  0.048167  0.036296 -0.047396  0.021702
     5 x       0.023536  0.165222  0.017310 -0.035661 -0.005500 -0.037384
     5 y       0.070971 -0.176017  0.011790 -0.050697  0.003282  0.036017
     5 z      -0.218901 -0.189928  0.038935  0.106425  0.124739 -0.008636
     6 x      -0.023838  0.049793 -0.089977 -0.084761  0.016499  0.005709
     6 y      -0.083964 -0.058074 -0.201299 -0.148819  0.098077 -0.038354
     6 z       0.140155 -0.026321  0.273916  0.167996 -0.185177  0.095420
     7 x       0.112029  0.129473 -0.004973 -0.071421 -0.020596 -0.035311
     7 y       0.056385 -0.209601 -0.009144 -0.049901 -0.027798  0.037964
     7 z       0.194367 -0.183458  0.042968 -0.087046 -0.120017 -0.009011
     8 x       0.379517  0.058160  0.008744 -0.073676  0.179587 -0.018587
     8 y       0.356536 -0.067831 -0.004295 -0.069215  0.168713  0.009131
     8 z      -0.068682 -0.030744  0.026018  0.013333 -0.032500 -0.055306
     9 x       0.154820  0.227321  0.007924 -0.096267 -0.077624  0.021382
     9 y       0.006478 -0.206523 -0.024186 -0.020924  0.038713 -0.028156
     9 z       0.171747 -0.005148  0.036150 -0.073913 -0.089871 -0.038980
    10 x      -0.019255  0.191572  0.030207 -0.010815  0.051528  0.019309
    10 y       0.120878 -0.240107 -0.003252 -0.079674 -0.063229 -0.030103
    10 z      -0.196281  0.001322  0.032118  0.093292  0.094594 -0.038604
    11 x      -0.109907  0.049794  0.253213 -0.181484  0.131935  0.055404
    11 y      -0.041683 -0.058073  0.121110 -0.101304  0.041370  0.008332
    11 z      -0.115950 -0.026321  0.211807 -0.119813  0.158314  0.086427
    12 x      -0.096240  0.050676  0.228726 -0.248052 -0.042252 -0.060832
    12 y      -0.088263 -0.059102  0.211408 -0.237433 -0.067873 -0.073895
    12 z       0.012674 -0.026788 -0.033742  0.054599  0.069818  0.047956




--------------------------------------------------------------------------------
  Vibrational properties (for cluster):  Temperature  =       0.000 K
--------------------------------------------------------------------------------
  Zero point energy            =        0.515772 eV
--------------------------------------------------------------------------------

  Phonon density of states : 

--------------------------------------------------------------------------------
 Frequency (cm-1) Density of States                                             
--------------------------------------------------------------------------------
    0.00000 |***************                                               0.033
    9.17590 |                                                              0.000
   18.35180 |                                                              0.000
   27.52770 |                                                              0.000
   36.70360 |                                                              0.000
   45.87951 |                                                              0.000
   55.05541 |                                                              0.000
   64.23131 |                                                              0.000
   73.40721 |                                                              0.000
   82.58311 |                                                              0.000
   91.75901 |                                                              0.000
  100.93491 |                                                              0.000
  110.11081 |                                                              0.000
  119.28671 |                                                              0.000
  128.46261 |                                                              0.000
  137.63852 |******************************                                0.067
  146.81442 |************************************************************  0.133
  155.99032 |*********************************************                 0.100
  165.16622 |                                                              0.000
  174.34212 |******************************                                0.067
  183.51802 |                                                              0.000
  192.69392 |******************************                                0.067
  201.86982 |                                                              0.000
  211.04572 |                                                              0.000
  220.22162 |***************                                               0.033
  229.39753 |                                                              0.000
  238.57343 |                                                              0.000
  247.74933 |***************                                               0.033
  256.92523 |                                                              0.000
  266.10113 |                                                              0.000
  275.27703 |                                                              0.000
  284.45293 |***************                                               0.033
  293.62883 |                                                              0.000
  302.80473 |***************                                               0.033
  311.98063 |                                                              0.000
  321.15654 |***************                                               0.033
  330.33244 |                                                              0.000
  339.50834 |                                                              0.000
  348.68424 |                                                              0.000
  357.86014 |******************************                                0.067
  367.03604 |******************************                                0.067
  376.21194 |                                                              0.000
  385.38784 |***************                                               0.033
  394.56374 |                                                              0.000
  403.73964 |                                                              0.000
  412.91555 |                                                              0.000
  422.09145 |                                                              0.000
  431.26735 |******************************                                0.067
  440.44325 |                                                              0.000
  449.61915 |                                                              0.000
  458.79505 |                                                              0.000
  467.97095 |***************                                               0.033
  477.14685 |***************                                               0.033
  486.32275 |                                                              0.000
  495.49865 |                                                              0.000
  504.67456 |                                                              0.000
  513.85046 |                                                              0.000
  523.02636 |                                                              0.000
  532.20226 |***************                                               0.033
  541.37816 |                                                              0.000
  550.55406 |                                                              0.000
  559.72996 |                                                              0.000
  568.90586 |                                                              0.000
  578.08176 |***************                                               0.033
--------------------------------------------------------------------------------



  XYZ File written as 001/3/sp_mod_0/sp_mod_0_eig.xyz


  Time to end of properties =       0.0134 seconds


  Peak dynamic memory used =       0.64 MB 


  Timing analysis for GULP :

--------------------------------------------------------------------------------
  Task / Subroutine                                          Time (Seconds)
--------------------------------------------------------------------------------
  Calculation of phonons                                          0.0039
--------------------------------------------------------------------------------
  Total CPU time                                                  0.0135
--------------------------------------------------------------------------------


  Job Finished at 10:29.43 17th May        2022                               

