------------------------------------------------------------
          Invoking FHI-aims ...

          When using FHI-aims, please cite the following reference:

            Volker Blum, Ralf Gehrke, Felix Hanke, Paula Havu,
            Ville Havu, Xinguo Ren, Karsten Reuter, and Matthias Scheffler,
            'Ab Initio Molecular Simulations with Numeric Atom-Centered Orbitals',
            Computer Physics Communications 180, 2175-2196 (2009)

          In addition, many other developments in FHI-aims are likely important for
          your particular application. A partial list of references is given at the end of
          this file. Thank you for giving credit to the authors of these developments.

          For any questions about FHI-aims, please visit our slack channel at

            https://fhi-aims.slack.com

          and our main development and support site at

            https://aims-git.rz-berlin.mpg.de .

          The latter site, in particular, has a wiki to collect information, as well
          as an issue tracker to log discussions, suggest improvements, and report issues
          or bugs. https://aims-git.rz-berlin.mpg.de is also the main development site
          of the project and all new and updated code versions can be obtained there.
          Please send an email to aims-coordinators@fhi-berlin.mpg.de and we will add
          you to these sites. They are for you and everyone is welcome there.

------------------------------------------------------------



  Date     :  20220614, Time     :  111332.248
  Time zero on CPU 1             :   0.120235000000000E+00  s.
  Internal wall clock time zero  :           424437212.248  s.

  FHI-aims created a unique identifier for this run for later identification
  aims_uuid : 15A947DB-E1A1-415B-A676-05E61DBA1C76

  Build configuration of the current instance of FHI-aims
  -------------------------------------------------------
  FHI-aims version      : 210914
  Commit number         : GITDIR-NOTFOUND
  CMake host system     : Linux-3.10.0-693.17.1.el7.x86_64
  CMake version         : 3.21.1
  Fortran compiler      : /shared/ucl/apps/intel/2018.Update3/impi/2018.3.222/intel64/bin/mpiifort (Intel) version 18.0.3.20180410
  Fortran compiler flags: -O3 -ip -fp-model precise
  C compiler            : /shared/ucl/apps/intel/2018.Update3/compilers_and_libraries_2018.3.222/linux/bin/intel64/icc (Intel) version 18.0.3.20180410
  C compiler flags      : -O3 -ip -fp-model precise -std=gnu99
  ELPA2 kernel          : AVX2
  Using MPI
  Using ScaLAPACK
  Using LibXC
  Using i-PI
  Using RLSY
  Linking against: /shared/ucl/apps/intel/2019.Update5/compilers_and_libraries_2019.5.281/linux/mkl/lib/intel64/libmkl_intel_lp64.so
                   /shared/ucl/apps/intel/2019.Update5/compilers_and_libraries_2019.5.281/linux/mkl/lib/intel64/libmkl_sequential.so
                   /shared/ucl/apps/intel/2019.Update5/compilers_and_libraries_2019.5.281/linux/mkl/lib/intel64/libmkl_core.so
                   /shared/ucl/apps/intel/2019.Update5/compilers_and_libraries_2019.5.281/linux/mkl/lib/intel64/libmkl_blacs_intelmpi_lp64.so
                   /shared/ucl/apps/intel/2019.Update5/compilers_and_libraries_2019.5.281/linux/mkl/lib/intel64/libmkl_scalapack_lp64.so

  Using       24 parallel tasks.
  Task        0 on host node-k98f-004 reporting.
  Task        1 on host node-k98f-004 reporting.
  Task        2 on host node-k98f-004 reporting.
  Task        3 on host node-k98f-004 reporting.
  Task        4 on host node-k98f-004 reporting.
  Task        5 on host node-k98f-004 reporting.
  Task        6 on host node-k98f-004 reporting.
  Task        7 on host node-k98f-004 reporting.
  Task        8 on host node-k98f-004 reporting.
  Task        9 on host node-k98f-004 reporting.
  Task       10 on host node-k98f-004 reporting.
  Task       11 on host node-k98f-004 reporting.
  Task       12 on host node-k98f-004 reporting.
  Task       13 on host node-k98f-004 reporting.
  Task       14 on host node-k98f-004 reporting.
  Task       15 on host node-k98f-004 reporting.
  Task       16 on host node-k98f-004 reporting.
  Task       17 on host node-k98f-004 reporting.
  Task       18 on host node-k98f-004 reporting.
  Task       19 on host node-k98f-004 reporting.
  Task       20 on host node-k98f-004 reporting.
  Task       21 on host node-k98f-004 reporting.
  Task       22 on host node-k98f-004 reporting.
  Task       23 on host node-k98f-004 reporting.

  Performing system and environment tests:
  | Environment variable OMP_NUM_THREADS correctly set to 1.
  | Checking for ScaLAPACK...
  | Testing pdtran()...
  | All pdtran() tests passed.

  Obtaining array dimensions for all initial allocations:
  
  -----------------------------------------------------------------------
  Parsing control.in (first pass over file, find array dimensions only).
  The contents of control.in will be repeated verbatim below
  unless switched off by setting 'verbatim_writeout .false.' .
  in the first line of control.in .
  -----------------------------------------------------------------------
  
  #########################################################################################  Physical model
  #########################################################################################
  xc                 pbesol
  spin               none
  relativistic       atomic_zora scalar
  charge             0.0
  #  SCF convergence
  occupation_type    gaussian 0.01
  mixer              pulay
  n_max_pulay        10
  charge_mix_param   0.5
  sc_accuracy_rho    1E-5
  sc_accuracy_eev    1E-3
  sc_accuracy_etot   1E-6
  sc_accuracy_forces 1E-4
  sc_iter_limit      1500
  #  Relaxation
  relax_geometry   bfgs 1.e-3
  
  ################################################################################
  #
  #  FHI-aims code project
  #  VB, Fritz-Haber Institut, 2009
  #
  #  Suggested "light" defaults for Al atom (to be pasted into control.in file)
  #  Be sure to double-check any results obtained with these settings for post-processing,
  #  e.g., with the "tight" defaults and larger basis sets.
  #
  ################################################################################
    species        Al
  #     global species definitions
      nucleus             13
      mass                26.9815386
  #
      l_hartree           4
  #
      cut_pot             3.5          1.5  1.0
      basis_dep_cutoff    1e-4
  #
      radial_base         41 5.0
      radial_multiplier   1
      angular_grids       specified
        division   0.6594  110
        division   0.8170  194
        division   0.9059  302
  #      division   1.0363  434
  #      division   1.1443  590
  #      division   1.2621  770
  #      division   2.8177  974
  #      outer_grid   974
        outer_grid   302
  ################################################################################
  #
  #  Definition of "minimal" basis
  #
  ################################################################################
  #     valence basis states
      valence      3  s   2.
      valence      3  p   1.
  #     ion occupancy
      ion_occ      3  s   1.
      ion_occ      2  p   6.
  ################################################################################
  #
  #  Suggested additional basis functions. For production calculations,
  #  uncomment them one after another (the most important basis functions are
  #  listed first).
  #
  #  Constructed for dimers: 2.0 A, 2.5 A, 3.0 A, 3.75 A, 4.5 A
  #
  ################################################################################
  #  "First tier" - improvements: -199.47 meV to -10.63 meV
       ionic 3 d auto
       ionic 3 p auto
  #     hydro 4 f 4.7
       ionic 3 s auto
  #  "Second tier" - improvements: -5.35 meV to -1.57 meV
  #     hydro 5 g 7
  #     hydro 3 d 6
  #     hydro 2 s 11.6
  #     hydro 2 p 0.9
  #  "Third tier" - improvements: -0.63 meV to -0.20 meV
  #     hydro 5 f 7.6
  #     hydro 4 p 7.2
  #     hydro 4 s 3.7
  #     hydro 4 d 7.6
  #  "Fourth tier" - improvements: -0.17 meV to -0.08 meV
  #     hydro 4 d 13.6
  #     hydro 5 g 11.2
  #     hydro 4 d 0.9
  #     hydro 1 s 0.4
  #     hydro 4 p 0.1
  #     hydro 5 f 9.8
  #  Further basis functions that fell out of the optimization - noise level...
  #     hydro 4 p 5
  
  ################################################################################
  #
  #  FHI-aims code project
  #  VB, Fritz-Haber Institut, 2009
  #
  #  Suggested "light" defaults for F atom (to be pasted into control.in file)
  #  Be sure to double-check any results obtained with these settings for post-processing,
  #  e.g., with the "tight" defaults and larger basis sets.
  #
  ################################################################################
    species        F
  #     global species definitions
      nucleus             9
      mass                18.9984032
  #
      l_hartree           4
  #
      cut_pot             3.5  1.5  1.0
      basis_dep_cutoff    1e-4
  #
      radial_base         37 5.0
      radial_multiplier   1
      angular_grids specified
        division   0.4014  110
        division   0.5291  194
        division   0.6019  302
  #      division   0.6814  434
  #      division   0.7989  590
  #      division   0.8965  770
  #      division   1.3427  974
  #      outer_grid   974
        outer_grid   302
  ################################################################################
  #
  #  Definition of "minimal" basis
  #
  ################################################################################
  #     valence basis states
      valence      2  s   2.
      valence      2  p   5.
  #     ion occupancy
      ion_occ      2  s   1.
      ion_occ      2  p   4.
  ################################################################################
  #
  #  Suggested additional basis functions. For production calculations,
  #  uncomment them one after another (the most important basis functions are
  #  listed first).
  #
  #  Constructed for dimers: 1.2 A, 1.418 A, 1.75 A, 2.25 A, 3.25 A
  #
  ################################################################################
  #  "First tier" - improvements: -149.44 meV to -45.88 meV
       hydro 2 p 1.7
       hydro 3 d 7.4
       hydro 3 s 6.8
  #  "Second tier" - improvements: -12.96 meV to -1.56 meV
  #     hydro 4 f 11.2
  #     ionic 2 p auto
  #     hydro 1 s 0.75
  #     hydro 4 d 8.8
  #     hydro 5 g 16.8
  #  "Third tier" - improvements: -0.58 meV to -0.05 meV
  #     hydro 3 p 6.2
  #     hydro 3 s 3.2
  #     hydro 4 f 9.6
  #     hydro 3 s 19.6
  #     hydro 4 d 8.6
  #     hydro 5 g 14.4
  # Further basis functions: -0.05 meV and below
  #     hydro 3 p 4.2
  
  -----------------------------------------------------------------------
  Completed first pass over input file control.in .
  -----------------------------------------------------------------------
  
  
  -----------------------------------------------------------------------
  Parsing geometry.in (first pass over file, find array dimensions only).
  The contents of geometry.in will be repeated verbatim below
  unless switched off by setting 'verbatim_writeout .false.' .
  in the first line of geometry.in .
  -----------------------------------------------------------------------
  
  atom 0.0000 0.0000 0.0000 Al
  atom 1.0000 0.0000 0.0000 F
  
  -----------------------------------------------------------------------
  Completed first pass over input file geometry.in .
  -----------------------------------------------------------------------
  

  Basic array size parameters:
  | Number of species                 :        2
  | Number of atoms                   :        2
  | Max. basis fn. angular momentum   :        2
  | Max. atomic/ionic basis occupied n:        3
  | Max. number of basis fn. types    :        3
  | Max. radial fns per species/type  :        5
  | Max. logarithmic grid size        :     1340
  | Max. radial integration grid size :       41
  | Max. angular integration grid size:      302
  | Max. angular grid division number :        8
  | Radial grid for Hartree potential :     1340
  | Number of spin channels           :        1

------------------------------------------------------------
          Reading file control.in.
------------------------------------------------------------
  XC: Using PBEsol gradient-corrected functionals.
  Spin treatment: No spin polarisation.
  Scalar relativistic treatment of kinetic energy: on-site free-atom approximation to ZORA.
  Charge =   0.000000E+00: Neutral system requested explicitly.
  Occupation type: Gaussian broadening, width =   0.100000E-01 eV.
  Using pulay charge density mixing.
  Pulay mixing - number of memorized iterations:   10
  Charge density mixing - mixing parameter:     0.5000
  Convergence accuracy of self-consistent charge density:  0.1000E-04
  Convergence accuracy of sum of eigenvalues:  0.1000E-02
  Convergence accuracy of total energy:  0.1000E-05
  Convergence accuracy of forces:  0.1000E-03
  Maximum number of s.-c. iterations  :  1500
  Geometry relaxation: Modified BFGS - TRM (trust radius method) for lattice optimization.
  Convergence accuracy for geometry relaxation: Maximum force <   0.100000E-02 eV/A.
 
  Reading configuration options for species Al                  .
  | Found nuclear charge :  13.0000
  | Found atomic mass :    26.9815386000000      amu
  | Found l_max for Hartree potential  :   4
  | Found cutoff potl. onset [A], width [A], scale factor :    3.50000    1.50000    1.00000
  | Threshold for basis-dependent cutoff potential is   0.100000E-03
  | Found data for basic radial integration grid :    41 points, outermost radius =    5.000 A
  | Found multiplier for basic radial grid :   1
  | Found angular grid specification: user-specified.
  | Specified grid contains     4 separate shells.
  | Check grid settings after all constraints further below.
  | Found free-atom valence shell :  3 s   2.000
  | Found free-atom valence shell :  3 p   1.000
  | Found free-ion valence shell :  3 s   1.000
  | Found free-ion valence shell :  2 p   6.000
  | Found ionic basis function :  3 d , default cutoff radius.
  | Found ionic basis function :  3 p , default cutoff radius.
  | Found ionic basis function :  3 s , default cutoff radius.
  Species Al                  : Missing cutoff potential type.
  Defaulting to exp(1/x)/(1-x)^2 type cutoff potential.
  Species Al: No 'logarithmic' tag. Using default grid for free atom:
  | Default logarithmic grid data [bohr] : 0.1000E-03 0.1000E+03 0.1012E+01
  | Will include ionic basis functions of  2.0-fold positive Al                   ion.
  Species Al: On-site basis accuracy parameter (for Gram-Schmidt orthonormalisation) not specified.
  Using default value basis_acc =  0.1000000E-03.
  Species Al                  : Using default innermost maximum threshold i_radial=  2 for radial functions.
  Species Al                  : Default cutoff onset for free atom density etc. : 0.35000000E+01 AA.
  Species Al                  : Basic radial grid will be enhanced according to radial_multiplier =   1, to contain    41 grid points.
 
  Reading configuration options for species F                   .
  | Found nuclear charge :   9.0000
  | Found atomic mass :    18.9984032000000      amu
  | Found l_max for Hartree potential  :   4
  | Found cutoff potl. onset [A], width [A], scale factor :    3.50000    1.50000    1.00000
  | Threshold for basis-dependent cutoff potential is   0.100000E-03
  | Found data for basic radial integration grid :    37 points, outermost radius =    5.000 A
  | Found multiplier for basic radial grid :   1
  | Found angular grid specification: user-specified.
  | Specified grid contains     4 separate shells.
  | Check grid settings after all constraints further below.
  | Found free-atom valence shell :  2 s   2.000
  | Found free-atom valence shell :  2 p   5.000
  | Found free-ion valence shell :  2 s   1.000
  | Found free-ion valence shell :  2 p   4.000
  | Found hydrogenic basis function :  2 p   1.700
  | Found hydrogenic basis function :  3 d   7.400
  | Found hydrogenic basis function :  3 s   6.800
  Species F                   : Missing cutoff potential type.
  Defaulting to exp(1/x)/(1-x)^2 type cutoff potential.
  Species F : No 'logarithmic' tag. Using default grid for free atom:
  | Default logarithmic grid data [bohr] : 0.1000E-03 0.1000E+03 0.1012E+01
  Species F : On-site basis accuracy parameter (for Gram-Schmidt orthonormalisation) not specified.
  Using default value basis_acc =  0.1000000E-03.
  Species F                   : Using default innermost maximum threshold i_radial=  2 for radial functions.
  Species F                   : Default cutoff onset for free atom density etc. : 0.35000000E+01 AA.
  Species F                   : Basic radial grid will be enhanced according to radial_multiplier =   1, to contain    37 grid points.
 
  Finished reading input file 'control.in'.
 
------------------------------------------------------------


------------------------------------------------------------
          Reading geometry description geometry.in.
------------------------------------------------------------
  | The smallest distance between any two atoms is         1.00000000 AA.
  | The first atom of this pair is atom number                      1 .
  | The second atom of this pair is atom number                     2 .
  Input structure read successfully.
  The structure contains        2 atoms,  and a total of         22.000 electrons.

  Input geometry:
  | No unit cell requested.
  | Atomic structure:
  |       Atom                x [A]            y [A]            z [A]
  |    1: Species Al            0.00000000        0.00000000        0.00000000
  |    2: Species F             1.00000000        0.00000000        0.00000000

 
  Finished reading input file 'control.in'.
 

------------------------------------------------------------
          Reading geometry description geometry.in.
------------------------------------------------------------
 
  Consistency checks for stacksize environment parameter are next.
 
  | Maximum stacksize for task 0: unlimited
  | Maximum stacksize for task 1: unlimited
  | Maximum stacksize for task 2: unlimited
  | Maximum stacksize for task 3: unlimited
  | Maximum stacksize for task 4: unlimited
  | Maximum stacksize for task 5: unlimited
  | Maximum stacksize for task 6: unlimited
  | Maximum stacksize for task 7: unlimited
  | Maximum stacksize for task 8: unlimited
  | Maximum stacksize for task 9: unlimited
  | Maximum stacksize for task 10: unlimited
  | Maximum stacksize for task 11: unlimited
  | Maximum stacksize for task 12: unlimited
  | Maximum stacksize for task 13: unlimited
  | Maximum stacksize for task 14: unlimited
  | Maximum stacksize for task 15: unlimited
  | Maximum stacksize for task 16: unlimited
  | Maximum stacksize for task 17: unlimited
  | Maximum stacksize for task 18: unlimited
  | Maximum stacksize for task 19: unlimited
  | Maximum stacksize for task 20: unlimited
  | Maximum stacksize for task 21: unlimited
  | Maximum stacksize for task 22: unlimited
  | Maximum stacksize for task 23: unlimited
  | Current stacksize for task 0: unlimited
  | Current stacksize for task 1: unlimited
  | Current stacksize for task 2: unlimited
  | Current stacksize for task 3: unlimited
  | Current stacksize for task 4: unlimited
  | Current stacksize for task 5: unlimited
  | Current stacksize for task 6: unlimited
  | Current stacksize for task 7: unlimited
  | Current stacksize for task 8: unlimited
  | Current stacksize for task 9: unlimited
  | Current stacksize for task 10: unlimited
  | Current stacksize for task 11: unlimited
  | Current stacksize for task 12: unlimited
  | Current stacksize for task 13: unlimited
  | Current stacksize for task 14: unlimited
  | Current stacksize for task 15: unlimited
  | Current stacksize for task 16: unlimited
  | Current stacksize for task 17: unlimited
  | Current stacksize for task 18: unlimited
  | Current stacksize for task 19: unlimited
  | Current stacksize for task 20: unlimited
  | Current stacksize for task 21: unlimited
  | Current stacksize for task 22: unlimited
  | Current stacksize for task 23: unlimited
 
  Consistency checks for the contents of control.in are next.
 
  MPI_IN_PLACE appears to work with this MPI implementation.
  | Keeping use_mpi_in_place .true. (see manual).
  Target number of points in a grid batch is not set. Defaulting to  100
  Method for grid partitioning is not set. Defaulting to parallel hash+maxmin partitioning.
  Batch size limit is not set. Defaulting to    200
  By default, will store active basis functions for each batch.
  If in need of memory, prune_basis_once .false. can be used to disable this option.
  communication_type for Hartree potential was not specified.
  Defaulting to calc_hartree .
  Pulay mixer: Number of initial linear mixing iterations not set.
  Defaulting to    0 iterations.
  Work space size for distributed Hartree potential not set.
  Defaulting to   0.200000E+03 MB.
  Algorithm-dependent basis array size parameters:
  | n_max_pulay                         :       10
  Presetting      1001 iterations before the initial mixing cycle
  is restarted anyway using the sc_init_iter criterion / keyword.
  Presetting a factor      1.000 between actual scf density residual
  and density convergence criterion sc_accuracy_rho below which sc_init_iter
  takes no effect.
  No maximum number of relaxation steps, defaulting to     1000
  Default initial Hessian is Lindh matrix (thres = 15.00) plus  0.200000E+01 eV/A^2 times unity.
  No maximum energy tolerance for TRM/BFGS moves, defaulting to   0.100000E-02
  Maximum energy tolerance by which TRM/BFGS trajectory may increase over multiple steps:   0.300000E-02
  No harmonic length scale. Defaulting to   0.250000E-01 A.
  No trust radius initializer. Defaulting to   0.200000E+00 A.
  Forces evaluation will include force correction term due to incomplete self-consistency (default).
  Handling of forces: Unphysical translation and rotation will be removed from forces.
  No accuracy limit for integral partition fn. given. Defaulting to  0.1000E-14.
  No threshold value for u(r) in integrations given. Defaulting to  0.1000E-05.
  No accuracy for occupation numbers given. Defaulting to  0.1000E-12.
  No threshold value for occupation numbers given. Defaulting to  0.0000E+00.
  No accuracy for fermi level given. Defaulting to  0.1000E-19.
  Maximum # of iterations to find E_F not set. Defaulting to  200.
  Preferred method for the eigenvalue solver ('KS_method') not specified in 'control.in'.
  Calling BLACS routine to test compilation state
  Since ScaLAPACK support is enabled, defaulting to ELPA (via ELSI).
  Will not use alltoall communication since running on < 1024 CPUs.
  Threshold for basis singularities not set.
  Default threshold for basis singularities:  0.1000E-04
  partition_type (choice of integration weights) for integrals was not specified.
  | Using a version of the partition function of Stratmann and coworkers ('stratmann_sparse').
  | At each grid point, the set of atoms used to build the partition table is smoothly restricted to
  | only those atoms whose free-atom density would be non-zero at that grid point.
  Partitioning for Hartree potential was not defined. Using partition_type for integrals.
  | Adjusted default value of keyword multip_moments_threshold to:       0.10000000E-11
  | This value may affect high angular momentum components of the Hartree potential in periodic systems.
  No q(lm)/r^(l+1) cutoff set for long-range Hartree potential.
  | Using default value of  0.100000E-09 .
  | Verify using the multipole_threshold keyword.
  Defaulting to new monopole extrapolation.
  Density update method: automatic selection selected.
  Geometry relaxation: A file "geometry.in.next_step" is written out by default after each step.
  | This file contains the geometry of the current relaxation step as well as
  | the current Hessian matrix needed to restart the relaxation algorithm.
  | If you do not want part or all of this information, use the keywords
  | "write_restart_geometry" or "hessian_to_restart_geometry" to switch the output off.
  Charge integration errors on the 3D integration grid will be compensated
  by explicit normalization and distribution of residual charges.
  Use the "compensate_multipole_errors" flag to change this behaviour.
  Set 'collect_eigenvectors' to be '.true.' for use_density_matrix .false.
 
  Consistency checks for the contents of geometry.in are next.
 
  Number of empty states per atom not set in control.in - providing a guess from actual geometry.
  | Total number of empty states used during s.c.f. cycle:        6
  If you use a very high smearing, use empty_states (per atom!) in control.in to increase this value.

  Structure-dependent array size parameters: 
  | Maximum number of distinct radial functions  :       14
  | Maximum number of basis functions            :       32
  | Number of Kohn-Sham states (occupied + empty):       17
------------------------------------------------------------

------------------------------------------------------------
          Preparing all fixed parts of the calculation.
------------------------------------------------------------
  Determining machine precision:
    2.225073858507201E-308
  Setting up grids for atomic and cluster calculations.

  Creating wave function, potential, and density for free atoms.

  Species: Al

  List of occupied orbitals and eigenvalues:
    n    l              occ      energy [Ha]    energy [eV]
    1    0           2.0000       -55.621123     -1513.5278
    2    0           2.0000        -3.957030      -107.6763
    3    0           2.0000        -0.272233        -7.4078
    2    1           6.0000        -2.540949       -69.1427
    3    1           1.0000        -0.083300        -2.2667


  Species: F

  List of occupied orbitals and eigenvalues:
    n    l              occ      energy [Ha]    energy [eV]
    1    0           2.0000       -24.399611      -663.9472
    2    0           2.0000        -1.098702       -29.8972
    2    1           5.0000        -0.408210       -11.1080


  Adding cutoff potential to free-atom effective potential.
  Creating fixed part of basis set: Ionic, confined, hydrogenic.
 
  Al                   ion:

  List of free ionic orbitals and eigenvalues:
    n    l      energy [Ha]    energy [eV]
    1    0       -56.418846     -1535.2349
    2    0        -4.732717      -128.7838
    3    0        -0.872690       -23.7471
    2    1        -3.317230       -90.2664


  List of ionic basis orbitals and eigenvalues:
    n    l      energy [Ha]    energy [eV]    outer radius [A]
    3    2        -0.346815        -9.4373       4.594041
    3    1        -0.631870       -17.1940       4.538221
    3    0        -0.872657       -23.7462       4.538221

 
  F                    hydrogenic:
 
  List of hydrogenic basis orbitals: 
    n    l      effective z      eigenvalue [eV]  inner max. [A]     outer max. [A]     outer radius [A]   
    2    1         1.700000        -9.7616           1.243167           1.243167           4.598524
    3    2         7.400000       -82.7828           0.642437           0.642437           3.305741
    3    0         6.800000       -69.9026           0.057798           1.022307           3.781556
 
  Creating atomic-like basis functions for current effective potential.

  Species Al                  :

  List of atomic basis orbitals and eigenvalues:
    n    l      energy [Ha]    energy [eV]    outer radius [A]
    1    0       -55.621123     -1513.5278       0.850197
    2    0        -3.957030      -107.6763       3.144911
    3    0        -0.272233        -7.4078       4.594041
    2    1        -2.540949       -69.1427       3.731966
    3    1        -0.083300        -2.2667       4.594041


  Species F                   :

  List of atomic basis orbitals and eigenvalues:
    n    l      energy [Ha]    energy [eV]    outer radius [A]
    1    0       -24.399611      -663.9472       1.258458
    2    0        -1.098702       -29.8972       4.325857
    2    1        -0.408210       -11.1080       4.487453

  Assembling full basis from fixed parts.
  | Species Al :   atomic orbital   1 s accepted.
  | Species Al :   atomic orbital   2 s accepted.
  | Species Al :    ionic orbital   3 s accepted.
  | Species Al :   atomic orbital   3 s accepted.
  | Species Al :   atomic orbital   2 p accepted.
  | Species Al :    ionic orbital   3 p accepted.
  | Species Al :   atomic orbital   3 p accepted.
  | Species Al :    ionic orbital   3 d accepted.
  | Species F :   atomic orbital   1 s accepted.
  | Species F :    hydro orbital   3 s accepted.
  | Species F :   atomic orbital   2 s accepted.
  | Species F :   atomic orbital   2 p accepted.
  | Species F :    hydro orbital   2 p accepted.
  | Species F :    hydro orbital   3 d accepted.
 
  Basis size parameters after reduction:
  | Total number of radial functions:       14
  | Total number of basis functions :       32
 
  Per-task memory consumption for arrays in subroutine allocate_ext:
  |           4.804168MB.
  Testing on-site integration grid accuracy.
  |  Species  Function  <phi|h_atom|phi> (log., in eV)  <phi|h_atom|phi> (rad., in eV)
           1        1              -1513.5277717935              -1513.5271881332
           1        2               -107.6762691836               -107.6762662489
           1        3                 -6.9467474784                 -6.9471269649
           1        4                  5.5771951849                  5.4862107220 ***
           1        5                -69.1427313144                -69.1427312731
           1        6                 -1.5197375330                 -1.5230432022
           1        7                  6.8210948310                  6.5529872240 ***
           1        8                  4.3216540965                  4.2851170187 ***
           2        9               -663.9471986398               -663.9470363334
           2       10                 16.8514011578                 16.8512525338
           2       11                -28.4490593856                -28.4490661472
           2       12                -11.1080115307                -11.1080620173
           2       13                  7.1940182175                  7.1685154137
           2       14                 44.8544281765                 44.8543763625
 * Note: Onsite integrals marked "***" above are less accurate than
 * onsite_accuracy_threshold =    0.03000 eV. Usually, this is harmless.
 * When in doubt, tighten the "radial" and/or "radial_multiplier" flags to check.

  Preparing densities etc. for the partition functions (integrals / Hartree potential).

  Preparations completed.
  max(cpu_time)          :      0.186 s.
  Wall clock time (cpu1) :      0.204 s.
------------------------------------------------------------

------------------------------------------------------------
          Begin self-consistency loop: Initialization.

          Date     :  20220614, Time     :  111333.270
------------------------------------------------------------

  Initializing index lists of integration centers etc. from given atomic structure:
  | Number of centers in hartree potential         :         2
  | Number of centers in hartree multipole         :         2
  | Number of centers in electron density summation:         2
  | Number of centers in basis integrals           :         2
  | Number of centers in integrals                 :         2
  | Number of centers in hamiltonian               :         2

  Initializing relaxation algorithms.
  Finished initialization of distributed Hessian storage.
  | Global dimension:         6
  | BLACS block size:         1
  | Number of workers:        6

  * Using 24 tasks for Scalapack Eigenvalue solver.
  Detailed listing of tasks and assigned k-points:
  (for non-periodic systems, the "k-point" denotes an internal label only)
   Task     0 k-point     1 on node-k98f-004
   Task     1 k-point     1 on node-k98f-004
   Task     2 k-point     1 on node-k98f-004
   Task     3 k-point     1 on node-k98f-004
   Task     4 k-point     1 on node-k98f-004
   Task     5 k-point     1 on node-k98f-004
   Task     6 k-point     1 on node-k98f-004
   Task     7 k-point     1 on node-k98f-004
   Task     8 k-point     1 on node-k98f-004
   Task     9 k-point     1 on node-k98f-004
   Task    10 k-point     1 on node-k98f-004
   Task    11 k-point     1 on node-k98f-004
   Task    12 k-point     1 on node-k98f-004
   Task    13 k-point     1 on node-k98f-004
   Task    14 k-point     1 on node-k98f-004
   Task    15 k-point     1 on node-k98f-004
   Task    16 k-point     1 on node-k98f-004
   Task    17 k-point     1 on node-k98f-004
   Task    18 k-point     1 on node-k98f-004
   Task    19 k-point     1 on node-k98f-004
   Task    20 k-point     1 on node-k98f-004
   Task    21 k-point     1 on node-k98f-004
   Task    22 k-point     1 on node-k98f-004
   Task    23 k-point     1 on node-k98f-004
  Tasks:    24 split into      6 X      4 BLACS grid
  Calculating block size based on n_basis =           32  max_nprow =            6  max_npcol =            4
  ScaLAPACK block size set to:            4
  Allocating        0.000 MB for ovlp
  Allocating        0.000 MB for ham
  Allocating        0.000 MB for eigenvec
  Required Scalapack workspace - INTEGER:            1  REAL:             1
  Partitioning the integration grid into batches with parallel hashing+maxmin method.
  | Number of batches:      226
  | Maximal batch size:     103
  | Minimal batch size:      23
  | Average batch size:      67.487
  | Standard deviation of batch sizes:      19.941

  Integration load balanced across    24 MPI tasks.
  Work distribution over tasks is as follows:
  Task     0 has        620 integration points.
  Task     1 has        615 integration points.
  Task     2 has        616 integration points.
  Task     3 has        625 integration points.
  Task     4 has        661 integration points.
  Task     5 has        682 integration points.
  Task     6 has        680 integration points.
  Task     7 has        605 integration points.
  Task     8 has        601 integration points.
  Task     9 has        610 integration points.
  Task    10 has        622 integration points.
  Task    11 has        599 integration points.
  Task    12 has        605 integration points.
  Task    13 has        688 integration points.
  Task    14 has        614 integration points.
  Task    15 has        609 integration points.
  Task    16 has        678 integration points.
  Task    17 has        611 integration points.
  Task    18 has        678 integration points.
  Task    19 has        674 integration points.
  Task    20 has        603 integration points.
  Task    21 has        602 integration points.
  Task    22 has        677 integration points.
  Task    23 has        677 integration points.
  Initializing partition tables, free-atom densities, potentials, etc. across the integration grid (initialize_grid_storage).
  | initialize_grid_storage: Actual outermost partition radius vs. multipole_radius_free
  | (-- VB: in principle, multipole_radius_free should be larger, hence this output)
  | Species        1: Confinement radius =              4.999999999999999 AA, multipole_radius_free =              5.004487022111096 AA.
  | Species        1: outer_partition_radius set to              5.004487022111096 AA .
  | Species        2: Confinement radius =              4.999999999999999 AA, multipole_radius_free =              5.009370088163274 AA.
  | Species        2: outer_partition_radius set to              5.009370088163274 AA .
  | The sparse table of interatomic distances needs          0.04 kbyte instead of         0.03 kbyte of memory.
  | Using the partition_type stratmann_smoother will reduce your memory usage.
  | Net number of integration points:    15252
  | of which are non-zero points    :    14507
  Renormalizing the initial density to the exact electron count on the 3D integration grid.
  | Initial density: Formal number of electrons (from input files) :      22.0000000000
  | Integrated number of electrons on 3D grid     :      21.9994732152
  | Charge integration error                      :      -0.0005267848
  | Normalization factor for density and gradient :       1.0000239453
  Renormalizing the free-atom superposition density to the exact electron count on the 3D integration grid.
  | Formal number of electrons (from input files) :      22.0000000000
  | Integrated number of electrons on 3D grid     :      21.9994732152
  | Charge integration error                      :      -0.0005267848
  | Normalization factor for density and gradient :       1.0000239453
  Obtaining max. number of non-zero basis functions in each batch (get_n_compute_maxes).
  | Maximal number of non-zero basis functions:       32 in task     0
  | Maximal number of non-zero basis functions:       32 in task     1
  | Maximal number of non-zero basis functions:       32 in task     2
  | Maximal number of non-zero basis functions:       32 in task     3
  | Maximal number of non-zero basis functions:       32 in task     4
  | Maximal number of non-zero basis functions:       32 in task     5
  | Maximal number of non-zero basis functions:       32 in task     6
  | Maximal number of non-zero basis functions:       32 in task     7
  | Maximal number of non-zero basis functions:       32 in task     8
  | Maximal number of non-zero basis functions:       32 in task     9
  | Maximal number of non-zero basis functions:       32 in task    10
  | Maximal number of non-zero basis functions:       32 in task    11
  | Maximal number of non-zero basis functions:       32 in task    12
  | Maximal number of non-zero basis functions:       32 in task    13
  | Maximal number of non-zero basis functions:       32 in task    14
  | Maximal number of non-zero basis functions:       32 in task    15
  | Maximal number of non-zero basis functions:       32 in task    16
  | Maximal number of non-zero basis functions:       32 in task    17
  | Maximal number of non-zero basis functions:       32 in task    18
  | Maximal number of non-zero basis functions:       32 in task    19
  | Maximal number of non-zero basis functions:       32 in task    20
  | Maximal number of non-zero basis functions:       32 in task    21
  | Maximal number of non-zero basis functions:       32 in task    22
  | Maximal number of non-zero basis functions:       32 in task    23
  Selecting the method for density update.
  Loop over occupied states selected for charge density update.
  Allocating        0.004 MB for KS_eigenvector
  Integrating Hamiltonian matrix: batch-based integration.
  Time summed over all CPUs for integration: real work        0.678 s, elapsed        0.685 s
  Integrating overlap matrix.
  Time summed over all CPUs for integration: real work        0.026 s, elapsed        0.034 s
  Deallocating overlap matrix.

  Updating Kohn-Sham eigenvalues and eigenvectors using ELSI and the ELPA eigensolver.
  Overlap matrix is not singular
  | Lowest and highest eigenvalues :  0.1193E-01,  0.1988E+01
  Finished singularity check of overlap matrix
  | Time :     0.005 s
  Starting ELPA eigensolver
  Finished Cholesky decomposition
  | Time :     0.001 s
  Finished transformation to standard eigenproblem
  | Time :     0.002 s
  Finished solving standard eigenproblem
  | Time :     0.000 s
  Finished back-transformation of eigenvectors
  | Time :     0.000 s

  Obtaining occupation numbers and chemical potential using ELSI.
  | Chemical potential (Fermi level):    -1.82642800 eV
  Writing Kohn-Sham eigenvalues.

  State    Occupation    Eigenvalue [Ha]    Eigenvalue [eV]
      1       2.00000         -55.545936        -1511.48181
      2       2.00000         -24.728447         -672.89529
      3       2.00000          -4.073971         -110.85840
      4       2.00000          -2.752482          -74.89885
      5       2.00000          -2.615143          -71.16166
      6       2.00000          -2.615143          -71.16166
      7       2.00000          -1.362923          -37.08701
      8       2.00000          -0.776636          -21.13334
      9       2.00000          -0.776636          -21.13334
     10       2.00000          -0.632557          -17.21276
     11       2.00000          -0.226379           -6.16009
     12       0.00000          -0.062153           -1.69126
     13       0.00000          -0.062153           -1.69126
     14       0.00000          -0.002048           -0.05573
     15       0.00000           0.131606            3.58118
     16       0.00000           0.131606            3.58118
     17       0.00000           0.150444            4.09379

  Highest occupied state (VBM) at     -6.16008668 eV
  | Occupation number:      2.00000000

  Lowest unoccupied state (CBM) at    -1.69126490 eV
  | Occupation number:      0.00000000

  Overall HOMO-LUMO gap:      4.46882177 eV.
  Calculating total energy contributions from superposition of free atom densities.

  Total energy components:
  | Sum of eigenvalues            :        -192.21250762 Ha       -5230.36845063 eV
  | XC energy correction          :         -28.29120883 Ha        -769.84296156 eV
  | XC potential correction       :          36.87521458 Ha        1003.42564241 eV
  | Free-atom electrostatic energy:        -157.71708245 Ha       -4291.70017284 eV
  | Hartree energy correction     :           0.00000000 Ha           0.00000000 eV
  | Entropy correction            :          -0.00000000 Ha          -0.00000000 eV
  | ---------------------------
  | Total energy                  :        -341.34558433 Ha       -9288.48594262 eV
  | Total energy, T -> 0          :        -341.34558433 Ha       -9288.48594262 eV  <-- do not rely on this value for anything but (periodic) metals
  | Electronic free energy        :        -341.34558433 Ha       -9288.48594262 eV

  Derived energy quantities:
  | Kinetic energy                :         344.64044360 Ha        9378.14362492 eV
  | Electrostatic energy          :        -657.69481909 Ha      -17896.78660597 eV
  | Energy correction for multipole
  | error in Hartree potential    :           0.00000000 Ha           0.00000000 eV
  | Sum of eigenvalues per atom                           :       -2615.18422531 eV
  | Total energy (T->0) per atom                          :       -4644.24297131 eV  <-- do not rely on this value for anything but (periodic) metals
  | Electronic free energy per atom                       :       -4644.24297131 eV
  Initialize hartree_potential_storage
  Max. number of atoms included in rho_multipole:            2

  End scf initialization - timings             :  max(cpu_time)    wall_clock(cpu1)
  | Time for scf. initialization                :        0.085 s           0.299 s
  | Boundary condition initialization           :        0.000 s           0.007 s
  | Relaxation initialization                   :        0.005 s           0.005 s
  | Integration                                 :        0.005 s           0.037 s
  | Solution of K.-S. eqns.                     :        0.006 s           0.035 s
  | Grid partitioning                           :        0.011 s           0.016 s
  | Preloading free-atom quantities on grid     :        0.003 s           0.040 s
  | Free-atom superposition energy              :        0.001 s           0.003 s
  | Total energy evaluation                     :        0.001 s           0.027 s

  Partial memory accounting:
  | Current value for overall tracked memory usage:
  |   Minimum:        0.010 MB (on task  8)
  |   Maximum:        0.011 MB (on task  0)
  |   Average:        0.011 MB
  | Peak value for overall tracked memory usage:
  |   Minimum:        0.098 MB (on task  8 after allocating wave)
  |   Maximum:        0.126 MB (on task 10 after allocating grid_partition)
  |   Average:        0.101 MB
  | Largest tracked array allocation so far:
  |   Minimum:        0.025 MB (H_times_psi on task  6)
  |   Maximum:        0.083 MB (all_coords on task 10)
  |   Average:        0.037 MB
  Note:  These values currently only include a subset of arrays which are explicitly tracked.
  The "true" memory usage will be greater.
------------------------------------------------------------
  Evaluating new KS density.
  Integration grid: deviation in total charge (<rho> - N_e) =   0.000000E+00

  Time for density update prior                :  max(cpu_time)    wall_clock(cpu1)
  | self-consistency iterative process          :        0.003 s           0.014 s

------------------------------------------------------------
          Begin self-consistency iteration #    1

  Date     :  20220614, Time     :  111333.617
------------------------------------------------------------
  Pulay mixing of updated and previous charge densities.
  Renormalizing the density to the exact electron count on the 3D integration grid.
  | Formal number of electrons (from input files) :      22.0000000000
  | Integrated number of electrons on 3D grid     :      22.0000000000
  | Charge integration error                      :      -0.0000000000
  | Normalization factor for density and gradient :       1.0000000000

  Evaluating partitioned Hartree potential by multipole expansion.
  | Original multipole sum: apparent total charge =  -0.856001E-14
  | Sum of charges compensated after spline to logarithmic grids =   0.294750E-03
  | Analytical far-field extrapolation by fixed multipoles:
  | Hartree multipole sum: apparent total charge =  -0.841243E-14
  Summing up the Hartree potential.
  Time summed over all CPUs for potential: real work        0.125 s, elapsed        0.125 s
  | RMS charge density error from multipole expansion :   0.987532E-02

  Integrating Hamiltonian matrix: batch-based integration.
  Time summed over all CPUs for integration: real work        0.033 s, elapsed        0.036 s

  Updating Kohn-Sham eigenvalues and eigenvectors using ELSI and the ELPA eigensolver.
  Starting ELPA eigensolver
  Finished transformation to standard eigenproblem
  | Time :     0.000 s
  Finished solving standard eigenproblem
  | Time :     0.000 s
  Finished back-transformation of eigenvectors
  | Time :     0.000 s

  Obtaining occupation numbers and chemical potential using ELSI.
  | Chemical potential (Fermi level):    -3.36308826 eV
  Writing Kohn-Sham eigenvalues.

  State    Occupation    Eigenvalue [Ha]    Eigenvalue [eV]
      1       2.00000         -55.376387        -1506.86815
      2       2.00000         -24.047296         -654.36023
      3       2.00000          -3.950856         -107.50826
      4       2.00000          -2.607402          -70.95101
      5       2.00000          -2.504298          -68.14543
      6       2.00000          -2.504298          -68.14543
      7       2.00000          -1.060823          -28.86647
      8       2.00000          -0.480643          -13.07895
      9       2.00000          -0.480643          -13.07895
     10       2.00000          -0.331421           -9.01843
     11       2.00000          -0.187519           -5.10266
     12       0.00000          -0.033009           -0.89823
     13       0.00000          -0.033009           -0.89823
     14       0.00000           0.029183            0.79412
     15       0.00000           0.155951            4.24363
     16       0.00000           0.155951            4.24363
     17       0.00000           0.202064            5.49843

  Highest occupied state (VBM) at     -5.10266365 eV
  | Occupation number:      2.00000000

  Lowest unoccupied state (CBM) at    -0.89822840 eV
  | Occupation number:      0.00000000

  Overall HOMO-LUMO gap:      4.20443525 eV.

  Total energy components:
  | Sum of eigenvalues            :        -187.06317414 Ha       -5090.24795719 eV
  | XC energy correction          :         -28.79120986 Ha        -783.44868161 eV
  | XC potential correction       :          37.53340551 Ha        1021.33592888 eV
  | Free-atom electrostatic energy:        -157.71708245 Ha       -4291.70017284 eV
  | Hartree energy correction     :          -5.12817363 Ha        -139.54470444 eV
  | Entropy correction            :           0.00000000 Ha           0.00000000 eV
  | ---------------------------
  | Total energy                  :        -341.16623457 Ha       -9283.60558720 eV
  | Total energy, T -> 0          :        -341.16623457 Ha       -9283.60558720 eV  <-- do not rely on this value for anything but (periodic) metals
  | Electronic free energy        :        -341.16623457 Ha       -9283.60558720 eV

  Derived energy quantities:
  | Kinetic energy                :         349.08837809 Ha        9499.17808076 eV
  | Electrostatic energy          :        -661.46340280 Ha      -17999.33498635 eV
  | Energy correction for multipole
  | error in Hartree potential    :           0.00959013 Ha           0.26096072 eV
  | Sum of eigenvalues per atom                           :       -2545.12397860 eV
  | Total energy (T->0) per atom                          :       -4641.80279360 eV  <-- do not rely on this value for anything but (periodic) metals
  | Electronic free energy per atom                       :       -4641.80279360 eV
  Evaluating new KS density.
  Integration grid: deviation in total charge (<rho> - N_e) =   0.000000E+00

  Self-consistency convergence accuracy:
  | Change of charge density      :  0.6398E+00
  | Change of sum of eigenvalues  :  0.1401E+03 eV
  | Change of total energy        :  0.4880E+01 eV


------------------------------------------------------------
  End self-consistency iteration #     1       :  max(cpu_time)    wall_clock(cpu1)
  | Time for this iteration                     :        0.009 s           0.034 s
  | Charge density update                       :        0.001 s           0.001 s
  | Density mixing                              :        0.000 s           0.001 s
  | Hartree multipole update                    :        0.002 s           0.003 s
  | Hartree multipole summation                 :        0.003 s           0.009 s
  | Integration                                 :        0.002 s           0.002 s
  | Solution of K.-S. eqns.                     :        0.001 s           0.001 s
  | Total energy evaluation                     :        0.000 s           0.001 s

  Partial memory accounting:
  | Current value for overall tracked memory usage:
  |   Minimum:        0.010 MB (on task  8)
  |   Maximum:        0.011 MB (on task  0)
  |   Average:        0.011 MB
  | Peak value for overall tracked memory usage:
  |   Minimum:        0.111 MB (on task  8 after allocating gradient_basis_wave)
  |   Maximum:        0.126 MB (on task 10 after allocating grid_partition)
  |   Average:        0.112 MB
  | Largest tracked array allocation so far:
  |   Minimum:        0.075 MB (gradient_basis_wave on task  0)
  |   Maximum:        0.083 MB (all_coords on task 10)
  |   Average:        0.076 MB
  Note:  These values currently only include a subset of arrays which are explicitly tracked.
  The "true" memory usage will be greater.
------------------------------------------------------------

------------------------------------------------------------
          Begin self-consistency iteration #    2

  Date     :  20220614, Time     :  111333.655
------------------------------------------------------------
  Pulay mixing of updated and previous charge densities.
  Renormalizing the density to the exact electron count on the 3D integration grid.
  | Formal number of electrons (from input files) :      22.0000000000
  | Integrated number of electrons on 3D grid     :      22.0000000000
  | Charge integration error                      :       0.0000000000
  | Normalization factor for density and gradient :       1.0000000000

  Evaluating partitioned Hartree potential by multipole expansion.
  | Original multipole sum: apparent total charge =   0.167265E-14
  | Sum of charges compensated after spline to logarithmic grids =   0.270693E-03
  | Analytical far-field extrapolation by fixed multipoles:
  | Hartree multipole sum: apparent total charge =   0.152506E-14
  Summing up the Hartree potential.
  Time summed over all CPUs for potential: real work        0.032 s, elapsed        0.034 s
  | RMS charge density error from multipole expansion :   0.127293E-01

  Integrating Hamiltonian matrix: batch-based integration.
  Time summed over all CPUs for integration: real work        0.033 s, elapsed        0.036 s

  Updating Kohn-Sham eigenvalues and eigenvectors using ELSI and the ELPA eigensolver.
  Starting ELPA eigensolver
  Finished transformation to standard eigenproblem
  | Time :     0.000 s
  Finished solving standard eigenproblem
  | Time :     0.001 s
  Finished back-transformation of eigenvectors
  | Time :     0.000 s

  Obtaining occupation numbers and chemical potential using ELSI.
  | Chemical potential (Fermi level):    -3.65365946 eV
  Highest occupied state (VBM) at     -5.18280861 eV
  | Occupation number:      2.00000000

  Lowest unoccupied state (CBM) at    -0.97261363 eV
  | Occupation number:      0.00000000

  Overall HOMO-LUMO gap:      4.21019499 eV.

  Checking to see if s.c.f. parameters should be adjusted.

  Total energy components:
  | Sum of eigenvalues            :        -187.60699019 Ha       -5105.04594494 eV
  | XC energy correction          :         -28.74542401 Ha        -782.20278528 eV
  | XC potential correction       :          37.47252148 Ha        1019.67919018 eV
  | Free-atom electrostatic energy:        -157.71708245 Ha       -4291.70017284 eV
  | Hartree energy correction     :          -4.56301963 Ha        -124.16608168 eV
  | Entropy correction            :           0.00000000 Ha           0.00000000 eV
  | ---------------------------
  | Total energy                  :        -341.15999480 Ha       -9283.43579455 eV
  | Total energy, T -> 0          :        -341.15999480 Ha       -9283.43579455 eV  <-- do not rely on this value for anything but (periodic) metals
  | Electronic free energy        :        -341.15999480 Ha       -9283.43579455 eV

  Derived energy quantities:
  | Kinetic energy                :         348.90825261 Ha        9494.27661707 eV
  | Electrostatic energy          :        -661.32282341 Ha      -17995.50962635 eV
  | Energy correction for multipole
  | error in Hartree potential    :           0.00659449 Ha           0.17944529 eV
  | Sum of eigenvalues per atom                           :       -2552.52297247 eV
  | Total energy (T->0) per atom                          :       -4641.71789728 eV  <-- do not rely on this value for anything but (periodic) metals
  | Electronic free energy per atom                       :       -4641.71789728 eV
  Evaluating new KS density.
  Integration grid: deviation in total charge (<rho> - N_e) =   7.105427E-15

  Self-consistency convergence accuracy:
  | Change of charge density      :  0.1771E+00
  | Change of sum of eigenvalues  : -0.1480E+02 eV
  | Change of total energy        :  0.1698E+00 eV


------------------------------------------------------------
  End self-consistency iteration #     2       :  max(cpu_time)    wall_clock(cpu1)
  | Time for this iteration                     :        0.009 s           0.010 s
  | Charge density update                       :        0.001 s           0.001 s
  | Density mixing                              :        0.003 s           0.004 s
  | Hartree multipole update                    :        0.001 s           0.001 s
  | Hartree multipole summation                 :        0.002 s           0.001 s
  | Integration                                 :        0.002 s           0.002 s
  | Solution of K.-S. eqns.                     :        0.001 s           0.001 s
  | Total energy evaluation                     :        0.000 s           0.000 s

  Partial memory accounting:
  | Current value for overall tracked memory usage:
  |   Minimum:        0.011 MB (on task  8)
  |   Maximum:        0.012 MB (on task  0)
  |   Average:        0.011 MB
  | Peak value for overall tracked memory usage:
  |   Minimum:        0.112 MB (on task  8 after allocating gradient_basis_wave)
  |   Maximum:        0.126 MB (on task 10 after allocating grid_partition)
  |   Average:        0.113 MB
  | Largest tracked array allocation so far:
  |   Minimum:        0.075 MB (all_coords on task  0)
  |   Maximum:        0.083 MB (all_coords on task 10)
  |   Average:        0.076 MB
  Note:  These values currently only include a subset of arrays which are explicitly tracked.
  The "true" memory usage will be greater.
------------------------------------------------------------

------------------------------------------------------------
          Begin self-consistency iteration #    3

  Date     :  20220614, Time     :  111333.672
------------------------------------------------------------
  Pulay mixing of updated and previous charge densities.
  Renormalizing the density to the exact electron count on the 3D integration grid.
  | Formal number of electrons (from input files) :      22.0000000000
  | Integrated number of electrons on 3D grid     :      22.0000000000
  | Charge integration error                      :       0.0000000000
  | Normalization factor for density and gradient :       1.0000000000

  Evaluating partitioned Hartree potential by multipole expansion.
  | Original multipole sum: apparent total charge =   0.442759E-15
  | Sum of charges compensated after spline to logarithmic grids =   0.284168E-03
  | Analytical far-field extrapolation by fixed multipoles:
  | Hartree multipole sum: apparent total charge =   0.491955E-15
  Summing up the Hartree potential.
  Time summed over all CPUs for potential: real work        0.032 s, elapsed        0.034 s
  | RMS charge density error from multipole expansion :   0.164715E-01

  Integrating Hamiltonian matrix: batch-based integration.
  Time summed over all CPUs for integration: real work        0.033 s, elapsed        0.036 s

  Updating Kohn-Sham eigenvalues and eigenvectors using ELSI and the ELPA eigensolver.
  Starting ELPA eigensolver
  Finished transformation to standard eigenproblem
  | Time :     0.000 s
  Finished solving standard eigenproblem
  | Time :     0.001 s
  Finished back-transformation of eigenvectors
  | Time :     0.000 s

  Obtaining occupation numbers and chemical potential using ELSI.
  | Chemical potential (Fermi level):    -3.55776097 eV
  Highest occupied state (VBM) at     -5.09691577 eV
  | Occupation number:      2.00000000

  Lowest unoccupied state (CBM) at    -0.93582658 eV
  | Occupation number:      0.00000000

  Overall HOMO-LUMO gap:      4.16108918 eV.

  Total energy components:
  | Sum of eigenvalues            :        -187.27709345 Ha       -5096.06899803 eV
  | XC energy correction          :         -28.79039180 Ha        -783.42642108 eV
  | XC potential correction       :          37.53105382 Ha        1021.27193605 eV
  | Free-atom electrostatic energy:        -157.71708245 Ha       -4291.70017284 eV
  | Hartree energy correction     :          -4.90589943 Ha        -133.49631563 eV
  | Entropy correction            :           0.00000000 Ha           0.00000000 eV
  | ---------------------------
  | Total energy                  :        -341.15941332 Ha       -9283.41997153 eV
  | Total energy, T -> 0          :        -341.15941332 Ha       -9283.41997153 eV  <-- do not rely on this value for anything but (periodic) metals
  | Electronic free energy        :        -341.15941332 Ha       -9283.41997153 eV

  Derived energy quantities:
  | Kinetic energy                :         349.32815918 Ha        9505.70285604 eV
  | Electrostatic energy          :        -661.69718070 Ha      -18005.69640648 eV
  | Energy correction for multipole
  | error in Hartree potential    :           0.00613663 Ha           0.16698629 eV
  | Sum of eigenvalues per atom                           :       -2548.03449902 eV
  | Total energy (T->0) per atom                          :       -4641.70998576 eV  <-- do not rely on this value for anything but (periodic) metals
  | Electronic free energy per atom                       :       -4641.70998576 eV
  Evaluating new KS density.
  Integration grid: deviation in total charge (<rho> - N_e) =   0.000000E+00

  Self-consistency convergence accuracy:
  | Change of charge density      :  0.7106E-01
  | Change of sum of eigenvalues  :  0.8977E+01 eV
  | Change of total energy        :  0.1582E-01 eV


------------------------------------------------------------
  End self-consistency iteration #     3       :  max(cpu_time)    wall_clock(cpu1)
  | Time for this iteration                     :        0.010 s           0.006 s
  | Charge density update                       :        0.001 s           0.001 s
  | Density mixing                              :        0.004 s           0.000 s
  | Hartree multipole update                    :        0.001 s           0.001 s
  | Hartree multipole summation                 :        0.002 s           0.001 s
  | Integration                                 :        0.002 s           0.002 s
  | Solution of K.-S. eqns.                     :        0.001 s           0.001 s
  | Total energy evaluation                     :        0.000 s           0.000 s

  Partial memory accounting:
  | Current value for overall tracked memory usage:
  |   Minimum:        0.011 MB (on task  8)
  |   Maximum:        0.012 MB (on task  0)
  |   Average:        0.011 MB
  | Peak value for overall tracked memory usage:
  |   Minimum:        0.112 MB (on task  8 after allocating gradient_basis_wave)
  |   Maximum:        0.126 MB (on task 10 after allocating grid_partition)
  |   Average:        0.113 MB
  | Largest tracked array allocation so far:
  |   Minimum:        0.075 MB (all_coords on task  0)
  |   Maximum:        0.083 MB (all_coords on task 10)
  |   Average:        0.076 MB
  Note:  These values currently only include a subset of arrays which are explicitly tracked.
  The "true" memory usage will be greater.
------------------------------------------------------------

------------------------------------------------------------
          Begin self-consistency iteration #    4

  Date     :  20220614, Time     :  111333.685
------------------------------------------------------------
  Pulay mixing of updated and previous charge densities.
  Renormalizing the density to the exact electron count on the 3D integration grid.
  | Formal number of electrons (from input files) :      22.0000000000
  | Integrated number of electrons on 3D grid     :      22.0000000000
  | Charge integration error                      :       0.0000000000
  | Normalization factor for density and gradient :       1.0000000000

  Evaluating partitioned Hartree potential by multipole expansion.
  | Original multipole sum: apparent total charge =  -0.450139E-14
  | Sum of charges compensated after spline to logarithmic grids =   0.267004E-03
  | Analytical far-field extrapolation by fixed multipoles:
  | Hartree multipole sum: apparent total charge =  -0.469817E-14
  Summing up the Hartree potential.
  Time summed over all CPUs for potential: real work        0.032 s, elapsed        0.034 s
  | RMS charge density error from multipole expansion :   0.167874E-01

  Integrating Hamiltonian matrix: batch-based integration.
  Time summed over all CPUs for integration: real work        0.033 s, elapsed        0.036 s

  Updating Kohn-Sham eigenvalues and eigenvectors using ELSI and the ELPA eigensolver.
  Starting ELPA eigensolver
  Finished transformation to standard eigenproblem
  | Time :     0.000 s
  Finished solving standard eigenproblem
  | Time :     0.000 s
  Finished back-transformation of eigenvectors
  | Time :     0.000 s

  Obtaining occupation numbers and chemical potential using ELSI.
  | Chemical potential (Fermi level):    -3.60165303 eV
  Highest occupied state (VBM) at     -5.15206457 eV
  | Occupation number:      2.00000000

  Lowest unoccupied state (CBM) at    -0.97184362 eV
  | Occupation number:      0.00000000

  Overall HOMO-LUMO gap:      4.18022095 eV.

  Total energy components:
  | Sum of eigenvalues            :        -187.45002437 Ha       -5100.77468774 eV
  | XC energy correction          :         -28.77543182 Ha        -783.01933944 eV
  | XC potential correction       :          37.51124323 Ha        1020.73286250 eV
  | Free-atom electrostatic energy:        -157.71708245 Ha       -4291.70017284 eV
  | Hartree energy correction     :          -4.72798570 Ha        -128.65503690 eV
  | Entropy correction            :           0.00000000 Ha           0.00000000 eV
  | ---------------------------
  | Total energy                  :        -341.15928112 Ha       -9283.41637441 eV
  | Total energy, T -> 0          :        -341.15928112 Ha       -9283.41637441 eV  <-- do not rely on this value for anything but (periodic) metals
  | Electronic free energy        :        -341.15928112 Ha       -9283.41637441 eV

  Derived energy quantities:
  | Kinetic energy                :         349.21832694 Ha        9502.71416870 eV
  | Electrostatic energy          :        -661.60217624 Ha      -18003.11120367 eV
  | Energy correction for multipole
  | error in Hartree potential    :           0.00553560 Ha           0.15063127 eV
  | Sum of eigenvalues per atom                           :       -2550.38734387 eV
  | Total energy (T->0) per atom                          :       -4641.70818721 eV  <-- do not rely on this value for anything but (periodic) metals
  | Electronic free energy per atom                       :       -4641.70818721 eV
  Evaluating new KS density.
  Integration grid: deviation in total charge (<rho> - N_e) =   3.552714E-15

  Self-consistency convergence accuracy:
  | Change of charge density      :  0.1884E-01
  | Change of sum of eigenvalues  : -0.4706E+01 eV
  | Change of total energy        :  0.3597E-02 eV


------------------------------------------------------------
  End self-consistency iteration #     4       :  max(cpu_time)    wall_clock(cpu1)
  | Time for this iteration                     :        0.010 s           0.007 s
  | Charge density update                       :        0.001 s           0.002 s
  | Density mixing                              :        0.004 s           0.000 s
  | Hartree multipole update                    :        0.001 s           0.001 s
  | Hartree multipole summation                 :        0.002 s           0.002 s
  | Integration                                 :        0.002 s           0.001 s
  | Solution of K.-S. eqns.                     :        0.001 s           0.001 s
  | Total energy evaluation                     :        0.000 s           0.000 s

  Partial memory accounting:
  | Current value for overall tracked memory usage:
  |   Minimum:        0.011 MB (on task  8)
  |   Maximum:        0.012 MB (on task  0)
  |   Average:        0.011 MB
  | Peak value for overall tracked memory usage:
  |   Minimum:        0.112 MB (on task  8 after allocating gradient_basis_wave)
  |   Maximum:        0.126 MB (on task 10 after allocating grid_partition)
  |   Average:        0.113 MB
  | Largest tracked array allocation so far:
  |   Minimum:        0.075 MB (all_coords on task  0)
  |   Maximum:        0.083 MB (all_coords on task 10)
  |   Average:        0.076 MB
  Note:  These values currently only include a subset of arrays which are explicitly tracked.
  The "true" memory usage will be greater.
------------------------------------------------------------

------------------------------------------------------------
          Begin self-consistency iteration #    5

  Date     :  20220614, Time     :  111333.697
------------------------------------------------------------
  Pulay mixing of updated and previous charge densities.
  Renormalizing the density to the exact electron count on the 3D integration grid.
  | Formal number of electrons (from input files) :      22.0000000000
  | Integrated number of electrons on 3D grid     :      22.0000000000
  | Charge integration error                      :       0.0000000000
  | Normalization factor for density and gradient :       1.0000000000

  Evaluating partitioned Hartree potential by multipole expansion.
  | Original multipole sum: apparent total charge =  -0.669058E-14
  | Sum of charges compensated after spline to logarithmic grids =   0.270365E-03
  | Analytical far-field extrapolation by fixed multipoles:
  | Hartree multipole sum: apparent total charge =  -0.688737E-14
  Summing up the Hartree potential.
  Time summed over all CPUs for potential: real work        0.032 s, elapsed        0.040 s
  | RMS charge density error from multipole expansion :   0.168802E-01

  Integrating Hamiltonian matrix: batch-based integration.
  Time summed over all CPUs for integration: real work        0.033 s, elapsed        0.037 s

  Updating Kohn-Sham eigenvalues and eigenvectors using ELSI and the ELPA eigensolver.
  Starting ELPA eigensolver
  Finished transformation to standard eigenproblem
  | Time :     0.000 s
  Finished solving standard eigenproblem
  | Time :     0.003 s
  Finished back-transformation of eigenvectors
  | Time :     0.002 s

  Obtaining occupation numbers and chemical potential using ELSI.
  | Chemical potential (Fermi level):    -3.58123481 eV
  Highest occupied state (VBM) at     -5.13608553 eV
  | Occupation number:      2.00000000

  Lowest unoccupied state (CBM) at    -0.96075259 eV
  | Occupation number:      0.00000000

  Overall HOMO-LUMO gap:      4.17533294 eV.

  Total energy components:
  | Sum of eigenvalues            :        -187.39249345 Ha       -5099.20919176 eV
  | XC energy correction          :         -28.78105310 Ha        -783.17230224 eV
  | XC potential correction       :          37.51864296 Ha        1020.93421945 eV
  | Free-atom electrostatic energy:        -157.71708245 Ha       -4291.70017284 eV
  | Hartree energy correction     :          -4.78727718 Ha        -130.26843992 eV
  | Entropy correction            :           0.00000000 Ha           0.00000000 eV
  | ---------------------------
  | Total energy                  :        -341.15926322 Ha       -9283.41588731 eV
  | Total energy, T -> 0          :        -341.15926322 Ha       -9283.41588731 eV  <-- do not rely on this value for anything but (periodic) metals
  | Electronic free energy        :        -341.15926322 Ha       -9283.41588731 eV

  Derived energy quantities:
  | Kinetic energy                :         349.25956033 Ha        9503.83618642 eV
  | Electrostatic energy          :        -661.63777045 Ha      -18004.07977149 eV
  | Energy correction for multipole
  | error in Hartree potential    :           0.00559079 Ha           0.15213318 eV
  | Sum of eigenvalues per atom                           :       -2549.60459588 eV
  | Total energy (T->0) per atom                          :       -4641.70794365 eV  <-- do not rely on this value for anything but (periodic) metals
  | Electronic free energy per atom                       :       -4641.70794365 eV
  Evaluating new KS density.
  Integration grid: deviation in total charge (<rho> - N_e) =   0.000000E+00

  Self-consistency convergence accuracy:
  | Change of charge density      :  0.7428E-02
  | Change of sum of eigenvalues  :  0.1565E+01 eV
  | Change of total energy        :  0.4871E-03 eV


------------------------------------------------------------
  End self-consistency iteration #     5       :  max(cpu_time)    wall_clock(cpu1)
  | Time for this iteration                     :        0.026 s           0.023 s
  | Charge density update                       :        0.001 s           0.001 s
  | Density mixing                              :        0.008 s           0.005 s
  | Hartree multipole update                    :        0.002 s           0.003 s
  | Hartree multipole summation                 :        0.003 s           0.003 s
  | Integration                                 :        0.004 s           0.004 s
  | Solution of K.-S. eqns.                     :        0.006 s           0.006 s
  | Total energy evaluation                     :        0.001 s           0.001 s

  Partial memory accounting:
  | Current value for overall tracked memory usage:
  |   Minimum:        0.011 MB (on task  8)
  |   Maximum:        0.012 MB (on task  0)
  |   Average:        0.011 MB
  | Peak value for overall tracked memory usage:
  |   Minimum:        0.112 MB (on task  8 after allocating gradient_basis_wave)
  |   Maximum:        0.126 MB (on task 10 after allocating grid_partition)
  |   Average:        0.113 MB
  | Largest tracked array allocation so far:
  |   Minimum:        0.075 MB (all_coords on task  0)
  |   Maximum:        0.083 MB (all_coords on task 10)
  |   Average:        0.076 MB
  Note:  These values currently only include a subset of arrays which are explicitly tracked.
  The "true" memory usage will be greater.
------------------------------------------------------------

------------------------------------------------------------
          Begin self-consistency iteration #    6

  Date     :  20220614, Time     :  111333.727
------------------------------------------------------------
  Pulay mixing of updated and previous charge densities.
  Renormalizing the density to the exact electron count on the 3D integration grid.
  | Formal number of electrons (from input files) :      22.0000000000
  | Integrated number of electrons on 3D grid     :      22.0000000000
  | Charge integration error                      :       0.0000000000
  | Normalization factor for density and gradient :       1.0000000000

  Evaluating partitioned Hartree potential by multipole expansion.
  | Original multipole sum: apparent total charge =  -0.701036E-14
  | Sum of charges compensated after spline to logarithmic grids =   0.269806E-03
  | Analytical far-field extrapolation by fixed multipoles:
  | Hartree multipole sum: apparent total charge =  -0.656760E-14
  Summing up the Hartree potential.
  Time summed over all CPUs for potential: real work        0.032 s, elapsed        0.034 s
  | RMS charge density error from multipole expansion :   0.168703E-01

  Integrating Hamiltonian matrix: batch-based integration.
  Time summed over all CPUs for integration: real work        0.033 s, elapsed        0.037 s

  Updating Kohn-Sham eigenvalues and eigenvectors using ELSI and the ELPA eigensolver.
  Starting ELPA eigensolver
  Finished transformation to standard eigenproblem
  | Time :     0.002 s
  Finished solving standard eigenproblem
  | Time :     0.003 s
  Finished back-transformation of eigenvectors
  | Time :     0.000 s

  Obtaining occupation numbers and chemical potential using ELSI.
  | Chemical potential (Fermi level):    -3.58393574 eV
  Highest occupied state (VBM) at     -5.13620094 eV
  | Occupation number:      2.00000000

  Lowest unoccupied state (CBM) at    -0.96049998 eV
  | Occupation number:      0.00000000

  Overall HOMO-LUMO gap:      4.17570096 eV.

  Total energy components:
  | Sum of eigenvalues            :        -187.39871719 Ha       -5099.37854824 eV
  | XC energy correction          :         -28.78029641 Ha        -783.15171166 eV
  | XC potential correction       :          37.51764984 Ha        1020.90719535 eV
  | Free-atom electrostatic energy:        -157.71708245 Ha       -4291.70017284 eV
  | Hartree energy correction     :          -4.78081510 Ha        -130.09259783 eV
  | Entropy correction            :           0.00000000 Ha           0.00000000 eV
  | ---------------------------
  | Total energy                  :        -341.15926131 Ha       -9283.41583521 eV
  | Total energy, T -> 0          :        -341.15926131 Ha       -9283.41583521 eV  <-- do not rely on this value for anything but (periodic) metals
  | Electronic free energy        :        -341.15926131 Ha       -9283.41583521 eV

  Derived energy quantities:
  | Kinetic energy                :         349.25365992 Ha        9503.67562799 eV
  | Electrostatic energy          :        -661.63262481 Ha      -18003.93975154 eV
  | Energy correction for multipole
  | error in Hartree potential    :           0.00554751 Ha           0.15095529 eV
  | Sum of eigenvalues per atom                           :       -2549.68927412 eV
  | Total energy (T->0) per atom                          :       -4641.70791761 eV  <-- do not rely on this value for anything but (periodic) metals
  | Electronic free energy per atom                       :       -4641.70791761 eV
  Evaluating new KS density.
  Integration grid: deviation in total charge (<rho> - N_e) =   0.000000E+00

  Self-consistency convergence accuracy:
  | Change of charge density      :  0.1236E-02
  | Change of sum of eigenvalues  : -0.1694E+00 eV
  | Change of total energy        :  0.5209E-04 eV


------------------------------------------------------------
  End self-consistency iteration #     6       :  max(cpu_time)    wall_clock(cpu1)
  | Time for this iteration                     :        0.020 s           0.018 s
  | Charge density update                       :        0.001 s           0.001 s
  | Density mixing                              :        0.006 s           0.003 s
  | Hartree multipole update                    :        0.001 s           0.000 s
  | Hartree multipole summation                 :        0.002 s           0.002 s
  | Integration                                 :        0.003 s           0.004 s
  | Solution of K.-S. eqns.                     :        0.006 s           0.006 s
  | Total energy evaluation                     :        0.000 s           0.001 s

  Partial memory accounting:
  | Current value for overall tracked memory usage:
  |   Minimum:        0.011 MB (on task  8)
  |   Maximum:        0.012 MB (on task  0)
  |   Average:        0.011 MB
  | Peak value for overall tracked memory usage:
  |   Minimum:        0.112 MB (on task  8 after allocating gradient_basis_wave)
  |   Maximum:        0.126 MB (on task 10 after allocating grid_partition)
  |   Average:        0.113 MB
  | Largest tracked array allocation so far:
  |   Minimum:        0.075 MB (all_coords on task  0)
  |   Maximum:        0.083 MB (all_coords on task 10)
  |   Average:        0.076 MB
  Note:  These values currently only include a subset of arrays which are explicitly tracked.
  The "true" memory usage will be greater.
------------------------------------------------------------

------------------------------------------------------------
          Begin self-consistency iteration #    7

  Date     :  20220614, Time     :  111333.752
------------------------------------------------------------
  Pulay mixing of updated and previous charge densities.
  Renormalizing the density to the exact electron count on the 3D integration grid.
  | Formal number of electrons (from input files) :      22.0000000000
  | Integrated number of electrons on 3D grid     :      22.0000000000
  | Charge integration error                      :      -0.0000000000
  | Normalization factor for density and gradient :       1.0000000000

  Evaluating partitioned Hartree potential by multipole expansion.
  | Original multipole sum: apparent total charge =  -0.123235E-13
  | Sum of charges compensated after spline to logarithmic grids =   0.269598E-03
  | Analytical far-field extrapolation by fixed multipoles:
  | Hartree multipole sum: apparent total charge =  -0.124957E-13
  Summing up the Hartree potential.
[...]
   Pulay + GGA                   : -0.161884E+01 -0.570900E-14  0.285450E-14
   ----------------------------------------------------------------
   Total forces(   2)            :  0.116709E-01 -0.125384E-12  0.814133E-13


  Self-consistency convergence accuracy:
  | Change of charge density      :  0.4673E-06
  | Change of sum of eigenvalues  :  0.1076E-03 eV
  | Change of total energy        :  0.6398E-08 eV
  | Change of forces              :  0.1351E+01 eV/A


------------------------------------------------------------
  End self-consistency iteration #     5       :  max(cpu_time)    wall_clock(cpu1)
  | Time for this iteration                     :        0.016 s           0.012 s
  | Charge density & force component update     :        0.004 s           0.004 s
  | Density mixing                              :        0.003 s           0.000 s
  | Hartree multipole update                    :        0.001 s           0.001 s
  | Hartree multipole summation                 :        0.003 s           0.003 s
  | Hartree pot. SCF incomplete forces          :        0.002 s           0.002 s
  | Integration                                 :        0.002 s           0.001 s
  | Solution of K.-S. eqns.                     :        0.001 s           0.001 s
  | Total energy evaluation                     :        0.000 s           0.000 s

  Partial memory accounting:
  | Current value for overall tracked memory usage:
  |   Minimum:        0.012 MB (on task  8)
  |   Maximum:        0.013 MB (on task  0)
  |   Average:        0.012 MB
  | Peak value for overall tracked memory usage:
  |   Minimum:        0.339 MB (on task 23 after allocating hessian_basis_wave)
  |   Maximum:        0.346 MB (on task  0 after allocating hessian_basis_wave)
  |   Average:        0.345 MB
  | Largest tracked array allocation so far:
  |   Minimum:        0.179 MB (hessian_basis_wave on task  2)
  |   Maximum:        0.182 MB (hessian_basis_wave on task  0)
  |   Average:        0.181 MB
  Note:  These values currently only include a subset of arrays which are explicitly tracked.
  The "true" memory usage will be greater.
------------------------------------------------------------

------------------------------------------------------------
          Begin self-consistency iteration #    6

  Date     :  20220614, Time     :  111335.472
------------------------------------------------------------
  Pulay mixing of updated and previous charge densities.
  Renormalizing the density to the exact electron count on the 3D integration grid.
  | Formal number of electrons (from input files) :      22.0000000000
  | Integrated number of electrons on 3D grid     :      22.0000000000
  | Charge integration error                      :       0.0000000000
  | Normalization factor for density and gradient :       1.0000000000

  Evaluating partitioned Hartree potential by multipole expansion.
  | Original multipole sum: apparent total charge =  -0.182023E-14
  | Sum of charges compensated after spline to logarithmic grids =   0.627114E-03
  | Analytical far-field extrapolation by fixed multipoles:
  | Hartree multipole sum: apparent total charge =  -0.147586E-14
  Summing up the Hartree potential.
  Time summed over all CPUs for potential: real work        0.072 s, elapsed        0.075 s
  | RMS charge density error from multipole expansion :   0.476895E-02

  Integrating Hamiltonian matrix: batch-based integration.
  Time summed over all CPUs for integration: real work        0.033 s, elapsed        0.037 s

  Updating Kohn-Sham eigenvalues and eigenvectors using ELSI and the ELPA eigensolver.
  Starting ELPA eigensolver
  Finished transformation to standard eigenproblem
  | Time :     0.000 s
  Finished solving standard eigenproblem
  | Time :     0.000 s
  Finished back-transformation of eigenvectors
  | Time :     0.001 s

  Obtaining occupation numbers and chemical potential using ELSI.
  | Chemical potential (Fermi level):    -3.26033768 eV
  Highest occupied state (VBM) at     -6.26548116 eV
  | Occupation number:      2.00000000

  Lowest unoccupied state (CBM) at    -2.02209448 eV
  | Occupation number:      0.00000000

  Overall HOMO-LUMO gap:      4.24338667 eV.

  Total energy components:
  | Sum of eigenvalues            :        -187.20141351 Ha       -5094.00964192 eV
  | XC energy correction          :         -28.13041944 Ha        -765.46765959 eV
  | XC potential correction       :          36.64810545 Ha         997.24568859 eV
  | Free-atom electrostatic energy:        -162.26982473 Ha       -4415.58659356 eV
  | Hartree energy correction     :          -1.26929278 Ha         -34.53921376 eV
  | Entropy correction            :           0.00000000 Ha           0.00000000 eV
  | ---------------------------
  | Total energy                  :        -342.22284501 Ha       -9312.35742025 eV
  | Total energy, T -> 0          :        -342.22284501 Ha       -9312.35742025 eV  <-- do not rely on this value for anything but (periodic) metals
  | Electronic free energy        :        -342.22284501 Ha       -9312.35742025 eV

  Derived energy quantities:
  | Kinetic energy                :         343.28675248 Ha        9341.30781562 eV
  | Electrostatic energy          :        -657.37917805 Ha      -17888.19757628 eV
  | Energy correction for multipole
  | error in Hartree potential    :           0.00654620 Ha           0.17813129 eV
  | Sum of eigenvalues per atom                           :       -2547.00482096 eV
  | Total energy (T->0) per atom                          :       -4656.17871012 eV  <-- do not rely on this value for anything but (periodic) metals
  | Electronic free energy per atom                       :       -4656.17871012 eV
  Evaluating new KS density and force components.
  Integration grid: deviation in total charge (<rho> - N_e) =  -7.105427E-15

  atomic forces [eV/Ang]:
  -----------------------
  atom #    1
   Hellmann-Feynman              : -0.146690E+02  0.119962E-12  0.282478E-12
   Ionic forces                  :  0.000000E+00  0.000000E+00  0.000000E+00
   Multipole                     :  0.582890E-02  0.100220E-12 -0.150575E-12
   Hartree pot. SCF incomplete   : -0.201335E-06  0.224437E-11  0.487184E-12
   Pulay + GGA                   :  0.146749E+02 -0.342540E-13 -0.146150E-11
   ----------------------------------------------------------------
   Total forces(   1)            :  0.116414E-01  0.243030E-11 -0.842416E-12
  atom #    2
   Hellmann-Feynman              :  0.106808E+01 -0.165879E-12  0.291851E-12
   Ionic forces                  :  0.000000E+00  0.000000E+00  0.000000E+00
   Multipole                     :  0.562426E+00 -0.596991E-13 -0.262508E-13
   Hartree pot. SCF incomplete   :  0.284166E-05  0.223371E-12 -0.485370E-12
   Pulay + GGA                   : -0.161884E+01 -0.292301E-11 -0.292015E-11
   ----------------------------------------------------------------
   Total forces(   2)            :  0.116718E-01 -0.292521E-11 -0.313992E-11


  Self-consistency convergence accuracy:
  | Change of charge density      :  0.7330E-07
  | Change of sum of eigenvalues  : -0.1496E-04 eV
  | Change of total energy        :  0.1036E-09 eV
  | Change of forces              :  0.4952E-06 eV/A

  Writing Kohn-Sham eigenvalues.

  State    Occupation    Eigenvalue [Ha]    Eigenvalue [eV]
      1       2.00000         -55.497777        -1510.17136
      2       2.00000         -24.164749         -657.55628
      3       2.00000          -3.957594         -107.69162
      4       2.00000          -2.550642          -69.40651
      5       2.00000          -2.550642          -69.40651
      6       2.00000          -2.546171          -69.28483
      7       2.00000          -1.029674          -28.01885
      8       2.00000          -0.394163          -10.72571
      9       2.00000          -0.339521           -9.23883
     10       2.00000          -0.339521           -9.23883
     11       2.00000          -0.230252           -6.26548
     12       0.00000          -0.074311           -2.02209
     13       0.00000          -0.074311           -2.02209
     14       0.00000           0.002248            0.06118
     15       0.00000           0.149276            4.06202
     16       0.00000           0.149278            4.06207
     17       0.00000           0.206577            5.62126

  Highest occupied state (VBM) at     -6.26548116 eV
  | Occupation number:      2.00000000

  Lowest unoccupied state (CBM) at    -2.02209448 eV
  | Occupation number:      0.00000000

  Overall HOMO-LUMO gap:      4.24338667 eV.
  | Chemical Potential                          :    -3.26033768 eV

  Self-consistency cycle converged.


------------------------------------------------------------
  End self-consistency iteration #     6       :  max(cpu_time)    wall_clock(cpu1)
  | Time for this iteration                     :        0.016 s           0.013 s
  | Charge density & force component update     :        0.004 s           0.004 s
  | Density mixing                              :        0.003 s           0.000 s
  | Hartree multipole update                    :        0.001 s           0.001 s
  | Hartree multipole summation                 :        0.003 s           0.003 s
  | Hartree pot. SCF incomplete forces          :        0.002 s           0.002 s
  | Integration                                 :        0.002 s           0.002 s
  | Solution of K.-S. eqns.                     :        0.001 s           0.001 s
  | Total energy evaluation                     :        0.000 s           0.000 s

  Partial memory accounting:
  | Current value for overall tracked memory usage:
  |   Minimum:        0.012 MB (on task  8)
  |   Maximum:        0.013 MB (on task  0)
  |   Average:        0.012 MB
  | Peak value for overall tracked memory usage:
  |   Minimum:        0.339 MB (on task 23 after allocating hessian_basis_wave)
  |   Maximum:        0.346 MB (on task  0 after allocating hessian_basis_wave)
  |   Average:        0.345 MB
  | Largest tracked array allocation so far:
  |   Minimum:        0.179 MB (hessian_basis_wave on task  2)
  |   Maximum:        0.182 MB (hessian_basis_wave on task  0)
  |   Average:        0.181 MB
  Note:  These values currently only include a subset of arrays which are explicitly tracked.
  The "true" memory usage will be greater.
------------------------------------------------------------
  Removing unitary transformations (pure translations, rotations) from forces on atoms.
  Atomic forces before filtering:
  | Net force on center of mass :   0.233133E-01 -0.494916E-12 -0.398234E-11 eV/A
  | Net torque on center of mass:   0.169897E-44  0.196265E-11 -0.457496E-11 eV
  Atomic forces after filtering:
  | Net force on center of mass :   0.557519E-17 -0.811297E-28 -0.973557E-27 eV/A
  | Net torque on center of mass:   0.239977E-60  0.277221E-27  0.554443E-27 eV

  Energy and forces in a compact form:
  | Total energy uncorrected      :         -0.931235742024637E+04 eV
  | Total energy corrected        :         -0.931235742024637E+04 eV  <-- do not rely on this value for anything but (periodic) metals
  | Electronic free energy        :         -0.931235742024637E+04 eV
  Total atomic forces (unitary forces cleaned) [eV/Ang]:
  |    1         -0.151989347736005E-04         -0.365083705477194E-27         -0.324518849313061E-27
  |    2          0.151989347736060E-04          0.283953993148929E-27         -0.649037698626122E-27

  ------------------------------------ 
  Start decomposition of the XC Energy 
  ------------------------------------ 
  X and C from original XC functional choice 
  Hartree-Fock Energy :          0.000000000 Ha              0.000000000 eV
  X Energy            :        -27.229182966 Ha           -740.943767303 eV
  C Energy            :         -0.901236477 Ha            -24.523892291 eV
  Total XC Energy     :        -28.130419442 Ha           -765.467659594 eV
  ------------------------------------ 
  LDA X and C from self-consistent density 
  X Energy LDA        :        -25.819830932 Ha           -702.593347222 eV
  C Energy LDA        :         -1.627150804 Ha            -44.277026165 eV
  ------------------------------------ 
  End decomposition of the XC Energy 
  ------------------------------------ 

------------------------------------------------------------
  Relaxation / MD: End force evaluation.       :  max(cpu_time)    wall_clock(cpu1)
  | Time for this force evaluation              :        0.063 s           0.101 s

------------------------------------------------------------
  Geometry optimization: Attempting to predict improved coordinates.

  Removing unitary transformations (pure translations, rotations) from forces on atoms.
  Atomic forces before filtering:
  | Net force on center of mass :   0.557519E-17 -0.811297E-28 -0.973557E-27 eV/A
  | Net torque on center of mass:   0.239977E-60  0.277221E-27  0.554443E-27 eV
  Atomic forces after filtering:
  | Net force on center of mass :   0.000000E+00 -0.180144E-43 -0.720577E-43 eV/A
  | Net torque on center of mass:   0.532857E-76  0.615555E-43 -0.137274E-42 eV
  Net remaining forces (excluding translations, rotations) in present geometry:
  || Forces on atoms   || =   0.151989E-04 eV/A.
  Maximum force component is  0.151989E-04 eV/A.
  Present geometry is converged.

------------------------------------------------------------
  Final atomic structure:
                         x [A]             y [A]             z [A]
            atom        -0.35425337        0.00000000       -0.00000000  Al
            atom         1.35425337        0.00000000        0.00000000  F
------------------------------------------------------------

------------------------------------------------------------------------------
  Final output of selected total energy values:

  The following output summarizes some interesting total energy values
  at the end of a run (AFTER all relaxation, molecular dynamics, etc.).

  | Total energy of the DFT / Hartree-Fock s.c.f. calculation      :          -9312.357420246 eV
  | Final zero-broadening corrected energy (caution - metals only) :          -9312.357420246 eV
  | For reference only, the value of 1 Hartree used in FHI-aims is :             27.211384500 eV

  Before relying on these values, please be sure to understand exactly which
  total energy value is referred to by a given number. Different objects may
  all carry the same name 'total energy'. Definitions:

  Total energy of the DFT / Hartree-Fock s.c.f. calculation:
  | Note that this energy does not include ANY quantities calculated after the
  | s.c.f. cycle, in particular not ANY RPA, MP2, etc. many-body perturbation terms.

  Final zero-broadening corrected energy:
  | For metallic systems only, a broadening of the occupation numbers at the Fermi
  | level can be extrapolated back to zero broadening by an electron-gas inspired
  | formula. For all systems that are not real metals, this value can be
  | meaningless and should be avoided.

------------------------------------------------------------------------------
  Methods described in the following list of references were used in this FHI-aims run.
  If you publish the results, please make sure to cite these reference if they apply.
  FHI-aims is an academic code, and for our developers (often, Ph.D. students
  and postdocs), scientific credit in the community is essential.
  Thank you for helping us!

  For any use of FHI-aims, please cite:

    Volker Blum, Ralf Gehrke, Felix Hanke, Paula Havu, Ville Havu,
    Xinguo Ren, Karsten Reuter, and Matthias Scheffler
    'Ab initio molecular simulations with numeric atom-centered orbitals'
    Computer Physics Communications 180, 2175-2196 (2009)
    http://dx.doi.org/10.1016/j.cpc.2009.06.022


  The ELSI infrastructure was used in your run to solve the Kohn-Sham electronic structure.
  Please check out http://elsi-interchange.org to learn more.
  If scalability is important for your project, please acknowledge ELSI by citing:

    V. W-z. Yu, F. Corsetti, A. Garcia, W. P. Huhn, M. Jacquelin, W. Jia,
    B. Lange, L. Lin, J. Lu, W. Mi, A. Seifitokaldani, A. Vazquez-Mayagoitia,
    C. Yang, H. Yang, and V. Blum
    'ELSI: A unified software interface for Kohn-Sham electronic structure solvers'
    Computer Physics Communications 222, 267-285 (2018).
    http://dx.doi.org/10.1016/j.cpc.2017.09.007


  For the real-space grid partitioning and parallelization used in this calculation, please cite:

    Ville Havu, Volker Blum, Paula Havu, and Matthias Scheffler,
    'Efficient O(N) integration for all-electron electronic structure calculation'
    'using numerically tabulated basis functions'
    Journal of Computational Physics 228, 8367-8379 (2009).
    http://dx.doi.org/10.1016/j.jcp.2009.08.008

  Of course, there are many other important community references, e.g., those cited in the
  above references. Our list is limited to references that describe implementations in the
  FHI-aims code. The reason is purely practical (length of this list) - please credit others as well.

------------------------------------------------------------
          Leaving FHI-aims.
          Date     :  20220614, Time     :  111335.501

          Computational steps:
          | Number of self-consistency cycles          :           95
          | Number of SCF (re)initializations          :           10
          | Number of relaxation steps                 :            9

          Detailed time accounting                     :  max(cpu_time)    wall_clock(cpu1)
          | Total time                                  :        1.825 s           3.253 s
          | Preparation time                            :        0.186 s           0.204 s
          | Boundary condition initalization            :        0.001 s           0.007 s
          | Grid partitioning                           :        0.051 s           0.059 s
          | Preloading free-atom quantities on grid     :        0.011 s           0.045 s
          | Free-atom superposition energy              :        0.007 s           0.011 s
          | Total time for integrations                 :        0.211 s           0.253 s
          | Total time for solution of K.-S. equations  :        0.156 s           0.195 s
          | Total time for EV reorthonormalization      :        0.030 s           0.032 s
          | Total time for density & force components   :        0.185 s           0.197 s
          | Total time for mixing                       :        0.341 s           0.084 s
          | Total time for Hartree multipole update     :        0.086 s           0.092 s
          | Total time for Hartree multipole sum        :        0.205 s           0.205 s
          | Total time for total energy evaluation      :        0.016 s           0.042 s
          | Total time NSC force correction             :        0.036 s           0.040 s
          | Total time for scaled ZORA corrections      :        0.000 s           0.000 s

          Partial memory accounting:
          | Residual value for overall tracked memory usage across tasks:     0.000000 MB (should be 0.000000 MB)
          | Peak values for overall tracked memory usage:
          |   Minimum:        0.339 MB (on task 23 after allocating hessian_basis_wave)
          |   Maximum:        0.346 MB (on task  0 after allocating hessian_basis_wave)
          |   Average:        0.345 MB
          | Largest tracked array allocation:
          |   Minimum:        0.179 MB (hessian_basis_wave on task  2)
          |   Maximum:        0.182 MB (hessian_basis_wave on task  0)
          |   Average:        0.181 MB
          Note:  These values currently only include a subset of arrays which are explicitly tracked.
          The "true" memory usage will be greater.

          Have a nice day.
------------------------------------------------------------
