********************************************************************************
*                       GENERAL UTILITY LATTICE PROGRAM                        *
*                                 Julian Gale                                  *
*                       Curtin Institute for Computation                       *
*                           Department of Chemistry                            *
*                    Curtin University, Western Australia                      *
********************************************************************************
* Version = 5.1.1 * Last modified =  24th November 2018                        *
********************************************************************************
*  optimise     - perform optimisation run                                     *
*  conp         - constant pressure calculation                                *
*  property     - calculate properties for final geometry                      *
*  phonon       - calculate phonons for final geometry                         *
*  eigenvectors - output phonon eigenvectors                                   *
*  conjugate    - use conjugate gradients minimiser                            *
********************************************************************************

  Job Started  at 17:22.48 25th May        2022                               

  Number of CPUs =     1

  Host name      = login03                                 


  Total number of configurations input =      1

********************************************************************************
*  Input for Configuration =   1                                               *
********************************************************************************

  Formula = AlF                                                         

  Number of irreducible atoms/shells =       3


  Total number atoms/shells =       3

  Dimensionality = 0               :  Cluster


  Charge on cluster =   2.000000


  Initial cluster dipoles : x =     -1.000000 e.Angs
                            y =      0.000000 e.Angs
                            z =      0.000000 e.Angs

  Temperature of configuration =  0.000     K 

  Symmetry number =      1

  Cartesian coordinates of cluster :

--------------------------------------------------------------------------------
   No.  Atomic       x           y          z         Charge      Occupancy
        Label      (Angs)      (Angs)     (Angs)        (e)         (Frac)  
--------------------------------------------------------------------------------
      1 Al    c      0.0000      0.0000      0.0000     3.00000    1.000000    
      2 F     c      1.0000 *    0.0000 *    0.0000 *   0.59000    1.000000    
      3 F     s      1.0000 *    0.0000 *    0.0000 *  -1.59000    1.000000    
--------------------------------------------------------------------------------


  Brillouin zone sampling points :

--------------------------------------------------------------------------------
  Point number          x          y          z            Weight
--------------------------------------------------------------------------------
        1           0.000000   0.000000   0.000000     1.00000000
--------------------------------------------------------------------------------


********************************************************************************
*  General input information                                                   *
********************************************************************************

  Species output for all configurations : 

--------------------------------------------------------------------------------
  Species    Type    Atomic    Atomic    Charge       Radii (Angs)     Library
                     Number     Mass       (e)     Cova   Ionic  VDW   Symbol
--------------------------------------------------------------------------------
    Al       Core       13      26.98   3.000000   1.350  0.000  2.050          
    F        Core        9      19.00   0.590000   0.710  0.000  1.300          
    F        Shell       9       0.00  -1.590000   0.710  0.000  0.000          
--------------------------------------------------------------------------------


  Accuracy factor for short range sums = 12.000

  Time limit = Infinity

  Maximum range for interatomic potentials =    100000.000000 Angstroms

  General interatomic potentials :

--------------------------------------------------------------------------------
Atom  Types   Potential      Parameter       Value         Units   Cutoffs(Ang)
  1     2                                                            Min /  Max 
--------------------------------------------------------------------------------
Al   c F    s Buckingham    Buckingham A     3760.0008    eV        0.000 10.000
                            Buckingham rho  0.22200000    Ang       
                            Buckingham C     0.0000000    eV*Ang^6  
--------------------------------------------------------------------------------
F    s F    s Buck 4 range  Buck4 A          1127.7000    eV        0.000 12.000
                            Buck4 rho       0.27530000    Ang       
                            Buck4 C          15.830000    eV*Ang^6  
                            Buck4 minimum    2.7900000    Ang       
--------------------------------------------------------------------------------
F    c F    s Spring (c-s)  Spring k 2       20.770000    eV*Ang^-2 0.000  0.800
                            Spring k 4       0.0000000    eV*Ang^-4 
--------------------------------------------------------------------------------

********************************************************************************
*  Output for configuration   1                                                *
********************************************************************************


  Components of energy : 

--------------------------------------------------------------------------------
  Interatomic potentials     =          41.58210693 eV    
  Monopole - monopole (real) =         -43.19927520 eV    
--------------------------------------------------------------------------------
  Total lattice energy       =          -1.61716827 eV    
--------------------------------------------------------------------------------
  Total lattice energy       =            -156.0320 kJ/mol
--------------------------------------------------------------------------------


  Number of variables =        6

  Maximum number of calculations  =          2000
  Maximum Hessian update interval =            10
  Maximum step size               =   1.000000000
  Maximum parameter tolerance     =   0.000001000
  Maximum function  tolerance     =   0.000010000
  Maximum gradient  tolerance     =   0.000000010
  Maximum gradient  component     =   0.010000000

  Symmetry not applied to optimisation

  Cell parameters to be optimised using strains

  Conjugate gradient optimiser to be used

  Lower half triangular hessian to be used

  Minimiser to switch to RFO
  When gradient norm is less than     0.010000

  Start of cluster optimisation :

  Cycle:      0 Energy:        -1.617168  Gnorm:     20.221212  CPU:    0.004
  Cycle:      1 Energy:       -17.750049  Gnorm:      4.616866  CPU:    0.005
  Cycle:      2 Energy:       -22.307275  Gnorm:      2.800182  CPU:    0.007
  Cycle:      3 Energy:       -23.124934  Gnorm:      2.454187  CPU:    0.008
  Cycle:      4 Energy:       -24.038136  Gnorm:      2.031359  CPU:    0.010
  Cycle:      5 Energy:       -24.618346  Gnorm:      1.737898  CPU:    0.011
  Cycle:      6 Energy:       -25.061504  Gnorm:      1.490136  CPU:    0.012
  Cycle:      7 Energy:       -25.387347  Gnorm:      1.288197  CPU:    0.014
  Cycle:      8 Energy:       -25.633242  Gnorm:      1.118899  CPU:    0.015
  Cycle:      9 Energy:       -25.819715  Gnorm:      0.976094  CPU:    0.016
  Cycle:     10 Energy:       -25.979131  Gnorm:      0.839255  CPU:    0.018
  Cycle:     11 Energy:       -26.081716  Gnorm:      0.740591  CPU:    0.019
  Cycle:     12 Energy:       -26.165100  Gnorm:      0.651381  CPU:    0.021
  Cycle:     13 Energy:       -26.229198  Gnorm:      0.574937  CPU:    0.022
  Cycle:     14 Energy:       -26.279374  Gnorm:      0.508253  CPU:    0.023
  Cycle:     15 Energy:       -26.318654  Gnorm:      0.450071  CPU:    0.025
  Cycle:     16 Energy:       -26.349519  Gnorm:      0.399114  CPU:    0.026
  Cycle:     17 Energy:       -26.373832  Gnorm:      0.354373  CPU:    0.028
  Cycle:     18 Energy:       -26.393029  Gnorm:      0.314998  CPU:    0.029
  Cycle:     19 Energy:       -26.408218  Gnorm:      0.280273  CPU:    0.031
  Cycle:     20 Energy:       -26.421497  Gnorm:      0.246229  CPU:    0.032
  Cycle:     21 Energy:       -26.430577  Gnorm:      0.220144  CPU:    0.033
  Cycle:     22 Energy:       -26.438058  Gnorm:      0.196216  CPU:    0.035
  Cycle:     23 Energy:       -26.443969  Gnorm:      0.175136  CPU:    0.036
  Cycle:     24 Energy:       -26.448688  Gnorm:      0.156378  CPU:    0.038
  Cycle:     25 Energy:       -26.452452  Gnorm:      0.139702  CPU:    0.039
  Cycle:     26 Energy:       -26.455458  Gnorm:      0.124857  CPU:    0.041
  Cycle:     27 Energy:       -26.457860  Gnorm:      0.111633  CPU:    0.042
  Cycle:     28 Energy:       -26.459781  Gnorm:      0.099844  CPU:    0.044
  Cycle:     29 Energy:       -26.461319  Gnorm:      0.089327  CPU:    0.046
  Cycle:     30 Energy:       -26.462671  Gnorm:      0.078953  CPU:    0.047
  Cycle:     31 Energy:       -26.463612  Gnorm:      0.070868  CPU:    0.048
  Cycle:     32 Energy:       -26.464391  Gnorm:      0.063416  CPU:    0.050
  Cycle:     33 Energy:       -26.465012  Gnorm:      0.056797  CPU:    0.051
  Cycle:     34 Energy:       -26.465510  Gnorm:      0.050871  CPU:    0.052
  Cycle:     35 Energy:       -26.465910  Gnorm:      0.045572  CPU:    0.054
  Cycle:     36 Energy:       -26.466231  Gnorm:      0.040830  CPU:    0.055
  Cycle:     37 Energy:       -26.466489  Gnorm:      0.036586  CPU:    0.056
  Cycle:     38 Energy:       -26.466696  Gnorm:      0.032787  CPU:    0.058
  Cycle:     39 Energy:       -26.466862  Gnorm:      0.029385  CPU:    0.059
  Cycle:     40 Energy:       -26.467008  Gnorm:      0.026023  CPU:    0.061
  Cycle:     41 Energy:       -26.467111  Gnorm:      0.023389  CPU:    0.062
  Cycle:     42 Energy:       -26.467196  Gnorm:      0.020956  CPU:    0.063
  Cycle:     43 Energy:       -26.467264  Gnorm:      0.018790  CPU:    0.064
  Cycle:     44 Energy:       -26.467318  Gnorm:      0.016847  CPU:    0.066
  Cycle:     45 Energy:       -26.467362  Gnorm:      0.015105  CPU:    0.067
  Cycle:     46 Energy:       -26.467397  Gnorm:      0.013545  CPU:    0.068
  Cycle:     47 Energy:       -26.467426  Gnorm:      0.012146  CPU:    0.069
  Cycle:     48 Energy:       -26.467449  Gnorm:      0.010892  CPU:    0.071
  Cycle:     49 Energy:       -26.467467  Gnorm:      0.009767  CPU:    0.072
  ** Hessian has wrong structure
  ** Imaginary eigenvectors =   2
  ** Hessian has wrong structure
  ** Imaginary eigenvectors =   2
  Cycle:     50 Energy:       -26.467493  Gnorm:      0.007913  CPU:    0.075
  ** Hessian has wrong structure
  ** Imaginary eigenvectors =   2
  ** Hessian has wrong structure
  ** Imaginary eigenvectors =   2
  Cycle:     51 Energy:       -26.467517  Gnorm:      0.005639  CPU:    0.077
  ** Hessian has wrong structure
  ** Imaginary eigenvectors =   2
  ** Hessian has wrong structure
  ** Imaginary eigenvectors =   2
  Cycle:     52 Energy:       -26.467539  Gnorm:      0.002230  CPU:    0.080
  ** Hessian has wrong structure
  ** Imaginary eigenvectors =   2
  ** Hessian has wrong structure
  ** Imaginary eigenvectors =   2
  Cycle:     53 Energy:       -26.467542  Gnorm:      0.000001  CPU:    0.082
  ** Hessian has wrong structure
  ** Imaginary eigenvectors =   2
  ** Hessian has required structure
  Cycle:     54 Energy:       -26.467542  Gnorm:      0.000000  CPU:    0.085
  ** Hessian has required structure
  Cycle:     55 Energy:       -26.467542  Gnorm:      0.000000  CPU:    0.085
  ** Hessian has required structure
  Cycle:     56 Energy:       -26.467542  Gnorm:      0.000000  CPU:    0.086
  ** Hessian has required structure
  Cycle:     57 Energy:       -26.467542  Gnorm:      0.000000  CPU:    0.088
  ** Hessian has required structure
  Cycle:     58 Energy:       -26.467542  Gnorm:      0.000000  CPU:    0.089
  ** Hessian has required structure
  Cycle:     59 Energy:       -26.467542  Gnorm:      0.000000  CPU:    0.090
  ** Hessian has required structure
  Cycle:     60 Energy:       -26.467542  Gnorm:      0.000000  CPU:    0.091
  ** Hessian has required structure
  Cycle:     61 Energy:       -26.467542  Gnorm:      0.000000  CPU:    0.092
  ** Hessian calculated **

  XYZ File written as Al_atom.xyz



  **** Optimisation achieved ****


  Final energy =     -26.46754248 eV
  Final Gnorm  =       0.00000012

  Components of energy : 

--------------------------------------------------------------------------------
  Interatomic potentials     =           7.01483694 eV    
  Monopole - monopole (real) =         -33.48237942 eV    
--------------------------------------------------------------------------------
  Total lattice energy       =         -26.46754248 eV    
--------------------------------------------------------------------------------
  Total lattice energy       =           -2553.7133 kJ/mol
--------------------------------------------------------------------------------

  Final cartesian coordinates of atoms :

--------------------------------------------------------------------------------
   No.  Atomic        x           y          z          Radius
        Label       (Angs)      (Angs)     (Angs)       (Angs) 
--------------------------------------------------------------------------------
     1  Al    c     0.000000    0.000000    0.000000    0.000000
     2  F     c     1.817371    0.000008    0.000015    0.000000
     3  F     s     1.445832    0.000007    0.000012    0.000000
--------------------------------------------------------------------------------


  Final Cartesian derivatives :

--------------------------------------------------------------------------------
   No.  Atomic          x             y             z           Radius
        Label       (eV/Angs)     (eV/Angs)    (eV/Angs)      (eV/Angs)
--------------------------------------------------------------------------------
      1 Al    c       0.000000      0.000000      0.000000      0.000000
      2 F     c       0.000000      0.000000     -0.000000      0.000000
      3 F     s      -0.000001     -0.000000      0.000000      0.000000
--------------------------------------------------------------------------------
  Maximum abs         0.000001      0.000000      0.000000      0.000000
--------------------------------------------------------------------------------


  Born effective charge tensors : 

-------------------------------------------------------------------------------
  Atom             x           y             z
-------------------------------------------------------------------------------
    1 Al    x       1.7829     -0.0000     -0.0000
            y      -0.0000      2.6749     -0.0000
            z      -0.0000     -0.0000      2.6749
-------------------------------------------------------------------------------
    2 F     x       0.2171      0.0000      0.0000
            y       0.0000     -0.6749      0.0000
            z       0.0000      0.0000     -0.6749
-------------------------------------------------------------------------------




  Moment of inertia tensor (10^-46 x kgm^2): 

-------------------------------------------------------------------------------
                x           y           z           Principal axis system
-------------------------------------------------------------------------------
       x          0.00       -0.00       -0.00           -0.000000
       y         -0.00        6.11       -0.00            6.114626
       z         -0.00       -0.00        6.11            6.114626
-------------------------------------------------------------------------------
  Centre of mass (Ang) =     0.750980     0.000003     0.000006
-------------------------------------------------------------------------------


  Vibrational Frequency Calculation : 

--------------------------------------------------------------------------------

  Frequencies (cm-1) and Eigenvectors : 

  Frequency      -0.0860   -0.0860   -0.0000    0.0000    0.0000  771.3193
  IR Intensity    0.2022    0.2022    0.0870    0.0870    0.0870    0.0333
     in X         0.0000    0.0000    0.0870    0.0000    0.0000    0.0333
     in Y         0.2022    0.0000    0.0000    0.0870    0.0000    0.0000
     in Z         0.0000    0.2022    0.0000    0.0000    0.0870    0.0000
  Raman Intsty    0.0000    0.0000    0.0000    0.0000    0.0000    0.3841

     1 x       0.000003 -0.000005  0.765995  0.005388  0.000039 -0.642824
     1 y      -0.642824 -0.000366  0.005388 -0.765994 -0.000550 -0.000003
     1 z      -0.000366  0.642824  0.000035  0.000550 -0.766013 -0.000005
     2 x      -0.000003  0.000006  0.642808  0.004521  0.000033  0.766014
     2 y       0.766013  0.000436  0.004521 -0.642808 -0.000461  0.000003
     2 z       0.000436 -0.766013  0.000030  0.000462 -0.642824  0.000006




--------------------------------------------------------------------------------
  Vibrational properties (for cluster):  Temperature  =       0.000 K
--------------------------------------------------------------------------------
  Zero point energy            =        0.047816 eV
--------------------------------------------------------------------------------

  Phonon density of states : 

--------------------------------------------------------------------------------
 Frequency (cm-1) Density of States                                             
--------------------------------------------------------------------------------
    0.00000 |************************************************************  0.667
   12.05187 |                                                              0.000
   24.10373 |                                                              0.000
   36.15560 |                                                              0.000
   48.20746 |                                                              0.000
   60.25933 |                                                              0.000
   72.31119 |                                                              0.000
   84.36306 |                                                              0.000
   96.41493 |                                                              0.000
  108.46679 |                                                              0.000
  120.51866 |                                                              0.000
  132.57052 |                                                              0.000
  144.62239 |                                                              0.000
  156.67425 |                                                              0.000
  168.72612 |                                                              0.000
  180.77799 |                                                              0.000
  192.82985 |                                                              0.000
  204.88172 |                                                              0.000
  216.93358 |                                                              0.000
  228.98545 |                                                              0.000
  241.03732 |                                                              0.000
  253.08918 |                                                              0.000
  265.14105 |                                                              0.000
  277.19291 |                                                              0.000
  289.24478 |                                                              0.000
  301.29664 |                                                              0.000
  313.34851 |                                                              0.000
  325.40038 |                                                              0.000
  337.45224 |                                                              0.000
  349.50411 |                                                              0.000
  361.55597 |                                                              0.000
  373.60784 |                                                              0.000
  385.65970 |                                                              0.000
  397.71157 |                                                              0.000
  409.76344 |                                                              0.000
  421.81530 |                                                              0.000
  433.86717 |                                                              0.000
  445.91903 |                                                              0.000
  457.97090 |                                                              0.000
  470.02276 |                                                              0.000
  482.07463 |                                                              0.000
  494.12650 |                                                              0.000
  506.17836 |                                                              0.000
  518.23023 |                                                              0.000
  530.28209 |                                                              0.000
  542.33396 |                                                              0.000
  554.38582 |                                                              0.000
  566.43769 |                                                              0.000
  578.48956 |                                                              0.000
  590.54142 |                                                              0.000
  602.59329 |                                                              0.000
  614.64515 |                                                              0.000
  626.69702 |                                                              0.000
  638.74889 |                                                              0.000
  650.80075 |                                                              0.000
  662.85262 |                                                              0.000
  674.90448 |                                                              0.000
  686.95635 |                                                              0.000
  699.00821 |                                                              0.000
  711.06008 |                                                              0.000
  723.11195 |                                                              0.000
  735.16381 |                                                              0.000
  747.21568 |                                                              0.000
  759.26754 |******************************                                0.333
--------------------------------------------------------------------------------



  Time to end of optimisation =       0.0950 seconds


  Peak dynamic memory used =       0.52 MB 


  Timing analysis for GULP :

--------------------------------------------------------------------------------
  Task / Subroutine                                          Time (Seconds)
--------------------------------------------------------------------------------
  Calculation of real space energy and derivatives                0.0016
  Calculation of phonons                                          0.0005
  Calculation and manipulation of Hessian matrix                  0.0046
  Global summation overhead                                       0.0002
--------------------------------------------------------------------------------
  Total CPU time                                                  0.0950
--------------------------------------------------------------------------------


  Job Finished at 17:22.48 25th May        2022                               

