------------------------------------------------------------
          Invoking FHI-aims ...

          When using FHI-aims, please cite the following reference:

            Volker Blum, Ralf Gehrke, Felix Hanke, Paula Havu,
            Ville Havu, Xinguo Ren, Karsten Reuter, and Matthias Scheffler,
            'Ab Initio Molecular Simulations with Numeric Atom-Centered Orbitals',
            Computer Physics Communications 180, 2175-2196 (2009)

          In addition, many other developments in FHI-aims are likely important for
          your particular application. A partial list of references is given at the end of
          this file. Thank you for giving credit to the authors of these developments.

          For any questions about FHI-aims, please visit our slack channel at

            https://fhi-aims.slack.com

          and our main development and support site at

            https://aims-git.rz-berlin.mpg.de .

          The latter site, in particular, has a wiki to collect information, as well
          as an issue tracker to log discussions, suggest improvements, and report issues
          or bugs. https://aims-git.rz-berlin.mpg.de is also the main development site
          of the project and all new and updated code versions can be obtained there.
          Please send an email to aims-coordinators@fhi-berlin.mpg.de and we will add
          you to these sites. They are for you and everyone is welcome there.

------------------------------------------------------------



  Date     :  20220517, Time     :  115850.966
  Time zero on CPU 1             :   0.436720000000000E-01  s.
  Internal wall clock time zero  :           422020730.966  s.

  FHI-aims created a unique identifier for this run for later identification
  aims_uuid : 7026A6D3-38CE-471E-A915-8F81CEEEE499

  Build configuration of the current instance of FHI-aims
  -------------------------------------------------------
  FHI-aims version      : 210914
  Commit number         : GITDIR-NOTFOUND
  CMake host system     : Linux-3.10.0-693.17.1.el7.x86_64
  CMake version         : 3.21.1
  Fortran compiler      : /shared/ucl/apps/intel/2018.Update3/impi/2018.3.222/intel64/bin/mpiifort (Intel) version 18.0.3.20180410
  Fortran compiler flags: -O3 -ip -fp-model precise
  C compiler            : /shared/ucl/apps/intel/2018.Update3/compilers_and_libraries_2018.3.222/linux/bin/intel64/icc (Intel) version 18.0.3.20180410
  C compiler flags      : -O3 -ip -fp-model precise -std=gnu99
  ELPA2 kernel          : AVX2
  Using MPI
  Using ScaLAPACK
  Using LibXC
  Using i-PI
  Using RLSY
  Linking against: /shared/ucl/apps/intel/2019.Update5/compilers_and_libraries_2019.5.281/linux/mkl/lib/intel64/libmkl_intel_lp64.so
                   /shared/ucl/apps/intel/2019.Update5/compilers_and_libraries_2019.5.281/linux/mkl/lib/intel64/libmkl_sequential.so
                   /shared/ucl/apps/intel/2019.Update5/compilers_and_libraries_2019.5.281/linux/mkl/lib/intel64/libmkl_core.so
                   /shared/ucl/apps/intel/2019.Update5/compilers_and_libraries_2019.5.281/linux/mkl/lib/intel64/libmkl_blacs_intelmpi_lp64.so
                   /shared/ucl/apps/intel/2019.Update5/compilers_and_libraries_2019.5.281/linux/mkl/lib/intel64/libmkl_scalapack_lp64.so

  Using       24 parallel tasks.
  Task        0 on host node-k98a-025 reporting.
  Task        1 on host node-k98a-025 reporting.
  Task        2 on host node-k98a-025 reporting.
  Task        3 on host node-k98a-025 reporting.
  Task        4 on host node-k98a-025 reporting.
  Task        5 on host node-k98a-025 reporting.
  Task        6 on host node-k98a-025 reporting.
  Task        7 on host node-k98a-025 reporting.
  Task        8 on host node-k98a-025 reporting.
  Task        9 on host node-k98a-025 reporting.
  Task       10 on host node-k98a-025 reporting.
  Task       11 on host node-k98a-025 reporting.
  Task       12 on host node-k98a-025 reporting.
  Task       13 on host node-k98a-025 reporting.
  Task       14 on host node-k98a-025 reporting.
  Task       15 on host node-k98a-025 reporting.
  Task       16 on host node-k98a-025 reporting.
  Task       17 on host node-k98a-025 reporting.
  Task       18 on host node-k98a-025 reporting.
  Task       19 on host node-k98a-025 reporting.
  Task       20 on host node-k98a-025 reporting.
  Task       21 on host node-k98a-025 reporting.
  Task       22 on host node-k98a-025 reporting.
  Task       23 on host node-k98a-025 reporting.

  Performing system and environment tests:
  | Environment variable OMP_NUM_THREADS correctly set to 1.
  | Checking for ScaLAPACK...
  | Testing pdtran()...
  | All pdtran() tests passed.

  Obtaining array dimensions for all initial allocations:
  
  -----------------------------------------------------------------------
  Parsing control.in (first pass over file, find array dimensions only).
  The contents of control.in will be repeated verbatim below
  unless switched off by setting 'verbatim_writeout .false.' .
  in the first line of control.in .
  -----------------------------------------------------------------------
  
  #########################################################################################  Physical model
  #########################################################################################
  xc                 pbesol
  spin               none
  relativistic       atomic_zora scalar
  charge             0.0
  #  SCF convergence
  occupation_type    gaussian 0.01
  mixer              pulay
  n_max_pulay        10
  charge_mix_param   0.5
  sc_accuracy_rho    1E-5
  sc_accuracy_eev    1E-3
  sc_accuracy_etot   1E-6
  sc_accuracy_forces 1E-4
  sc_iter_limit      1500
  #  Relaxation
  #relax_geometry   bfgs 1.e-3
  
  ################################################################################
  #
  #  FHI-aims code project
  #  VB, Fritz-Haber Institut, 2009
  #
  #  Suggested "light" defaults for Al atom (to be pasted into control.in file)
  #  Be sure to double-check any results obtained with these settings for post-processing,
  #  e.g., with the "tight" defaults and larger basis sets.
  #
  ################################################################################
    species        Al
  #     global species definitions
      nucleus             13
      mass                26.9815386
  #
      l_hartree           4
  #
      cut_pot             3.5          1.5  1.0
      basis_dep_cutoff    1e-4
  #
      radial_base         41 5.0
      radial_multiplier   1
      angular_grids       specified
        division   0.6594  110
        division   0.8170  194
        division   0.9059  302
  #      division   1.0363  434
  #      division   1.1443  590
  #      division   1.2621  770
  #      division   2.8177  974
  #      outer_grid   974
        outer_grid   302
  ################################################################################
  #
  #  Definition of "minimal" basis
  #
  ################################################################################
  #     valence basis states
      valence      3  s   2.
      valence      3  p   1.
  #     ion occupancy
      ion_occ      3  s   1.
      ion_occ      2  p   6.
  ################################################################################
  #
  #  Suggested additional basis functions. For production calculations,
  #  uncomment them one after another (the most important basis functions are
  #  listed first).
  #
  #  Constructed for dimers: 2.0 A, 2.5 A, 3.0 A, 3.75 A, 4.5 A
  #
  ################################################################################
  #  "First tier" - improvements: -199.47 meV to -10.63 meV
       ionic 3 d auto
       ionic 3 p auto
  #     hydro 4 f 4.7
       ionic 3 s auto
  #  "Second tier" - improvements: -5.35 meV to -1.57 meV
  #     hydro 5 g 7
  #     hydro 3 d 6
  #     hydro 2 s 11.6
  #     hydro 2 p 0.9
  #  "Third tier" - improvements: -0.63 meV to -0.20 meV
  #     hydro 5 f 7.6
  #     hydro 4 p 7.2
  #     hydro 4 s 3.7
  #     hydro 4 d 7.6
  #  "Fourth tier" - improvements: -0.17 meV to -0.08 meV
  #     hydro 4 d 13.6
  #     hydro 5 g 11.2
  #     hydro 4 d 0.9
  #     hydro 1 s 0.4
  #     hydro 4 p 0.1
  #     hydro 5 f 9.8
  #  Further basis functions that fell out of the optimization - noise level...
  #     hydro 4 p 5
  
  ################################################################################
  #
  #  FHI-aims code project
  #  VB, Fritz-Haber Institut, 2009
  #
  #  Suggested "light" defaults for F atom (to be pasted into control.in file)
  #  Be sure to double-check any results obtained with these settings for post-processing,
  #  e.g., with the "tight" defaults and larger basis sets.
  #
  ################################################################################
    species        F
  #     global species definitions
      nucleus             9
      mass                18.9984032
  #
      l_hartree           4
  #
      cut_pot             3.5  1.5  1.0
      basis_dep_cutoff    1e-4
  #
      radial_base         37 5.0
      radial_multiplier   1
      angular_grids specified
        division   0.4014  110
        division   0.5291  194
        division   0.6019  302
  #      division   0.6814  434
  #      division   0.7989  590
  #      division   0.8965  770
  #      division   1.3427  974
  #      outer_grid   974
        outer_grid   302
  ################################################################################
  #
  #  Definition of "minimal" basis
  #
  ################################################################################
  #     valence basis states
      valence      2  s   2.
      valence      2  p   5.
  #     ion occupancy
      ion_occ      2  s   1.
      ion_occ      2  p   4.
  ################################################################################
  #
  #  Suggested additional basis functions. For production calculations,
  #  uncomment them one after another (the most important basis functions are
  #  listed first).
  #
  #  Constructed for dimers: 1.2 A, 1.418 A, 1.75 A, 2.25 A, 3.25 A
  #
  ################################################################################
  #  "First tier" - improvements: -149.44 meV to -45.88 meV
       hydro 2 p 1.7
       hydro 3 d 7.4
       hydro 3 s 6.8
  #  "Second tier" - improvements: -12.96 meV to -1.56 meV
  #     hydro 4 f 11.2
  #     ionic 2 p auto
  #     hydro 1 s 0.75
  #     hydro 4 d 8.8
  #     hydro 5 g 16.8
  #  "Third tier" - improvements: -0.58 meV to -0.05 meV
  #     hydro 3 p 6.2
  #     hydro 3 s 3.2
  #     hydro 4 f 9.6
  #     hydro 3 s 19.6
  #     hydro 4 d 8.6
  #     hydro 5 g 14.4
  # Further basis functions: -0.05 meV and below
  #     hydro 3 p 4.2
  
  -----------------------------------------------------------------------
  Completed first pass over input file control.in .
  -----------------------------------------------------------------------
  
  
  -----------------------------------------------------------------------
  Parsing geometry.in (first pass over file, find array dimensions only).
  The contents of geometry.in will be repeated verbatim below
  unless switched off by setting 'verbatim_writeout .false.' .
  in the first line of geometry.in .
  -----------------------------------------------------------------------
  
  atom -0.583076838 0.983300960 -1.958420536 Al
  atom -0.480943581 1.066795291 1.262059601 Al
  atom -3.304311303 0.394755878 -1.981281009 Al
  atom -3.447035655 0.338060536 -3.336619361 F
  atom -1.259339758 -0.526490704 -1.834375138 F
  atom -1.823234493 2.082701389 -1.884138761 F
  atom -1.990729377 0.725509855 0.475888909 F
  atom 0.683305416 1.292199497 -0.112303375 F
  atom -0.298431781 2.760756804 1.997274971 F
  atom 0.378773408 -0.372737871 2.057035558 F
  atom -4.144150967 0.237575526 -0.705904113 F
  atom 0.783446419 1.253627503 -3.269462644 F
  
  -----------------------------------------------------------------------
  Completed first pass over input file geometry.in .
  -----------------------------------------------------------------------
  

  Basic array size parameters:
  | Number of species                 :        2
  | Number of atoms                   :       12
  | Max. basis fn. angular momentum   :        2
  | Max. atomic/ionic basis occupied n:        3
  | Max. number of basis fn. types    :        3
  | Max. radial fns per species/type  :        5
  | Max. logarithmic grid size        :     1340
  | Max. radial integration grid size :       41
  | Max. angular integration grid size:      302
  | Max. angular grid division number :        8
  | Radial grid for Hartree potential :     1340
  | Number of spin channels           :        1

------------------------------------------------------------
          Reading file control.in.
------------------------------------------------------------
  XC: Using PBEsol gradient-corrected functionals.
  Spin treatment: No spin polarisation.
  Scalar relativistic treatment of kinetic energy: on-site free-atom approximation to ZORA.
  Charge =   0.000000E+00: Neutral system requested explicitly.
  Occupation type: Gaussian broadening, width =   0.100000E-01 eV.
  Using pulay charge density mixing.
  Pulay mixing - number of memorized iterations:   10
  Charge density mixing - mixing parameter:     0.5000
  Convergence accuracy of self-consistent charge density:  0.1000E-04
  Convergence accuracy of sum of eigenvalues:  0.1000E-02
  Convergence accuracy of total energy:  0.1000E-05
  Convergence accuracy of forces:  0.1000E-03
  Maximum number of s.-c. iterations  :  1500
 
  Reading configuration options for species Al                  .
  | Found nuclear charge :  13.0000
  | Found atomic mass :    26.9815386000000      amu
  | Found l_max for Hartree potential  :   4
  | Found cutoff potl. onset [A], width [A], scale factor :    3.50000    1.50000    1.00000
  | Threshold for basis-dependent cutoff potential is   0.100000E-03
  | Found data for basic radial integration grid :    41 points, outermost radius =    5.000 A
  | Found multiplier for basic radial grid :   1
  | Found angular grid specification: user-specified.
  | Specified grid contains     4 separate shells.
  | Check grid settings after all constraints further below.
  | Found free-atom valence shell :  3 s   2.000
  | Found free-atom valence shell :  3 p   1.000
  | Found free-ion valence shell :  3 s   1.000
  | Found free-ion valence shell :  2 p   6.000
  | Found ionic basis function :  3 d , default cutoff radius.
  | Found ionic basis function :  3 p , default cutoff radius.
  | Found ionic basis function :  3 s , default cutoff radius.
  Species Al                  : Missing cutoff potential type.
  Defaulting to exp(1/x)/(1-x)^2 type cutoff potential.
  Species Al: No 'logarithmic' tag. Using default grid for free atom:
  | Default logarithmic grid data [bohr] : 0.1000E-03 0.1000E+03 0.1012E+01
  | Will include ionic basis functions of  2.0-fold positive Al                   ion.
  Species Al: On-site basis accuracy parameter (for Gram-Schmidt orthonormalisation) not specified.
  Using default value basis_acc =  0.1000000E-03.
  Species Al                  : Using default innermost maximum threshold i_radial=  2 for radial functions.
  Species Al                  : Default cutoff onset for free atom density etc. : 0.35000000E+01 AA.
  Species Al                  : Basic radial grid will be enhanced according to radial_multiplier =   1, to contain    41 grid points.
 
  Reading configuration options for species F                   .
  | Found nuclear charge :   9.0000
  | Found atomic mass :    18.9984032000000      amu
  | Found l_max for Hartree potential  :   4
  | Found cutoff potl. onset [A], width [A], scale factor :    3.50000    1.50000    1.00000
  | Threshold for basis-dependent cutoff potential is   0.100000E-03
  | Found data for basic radial integration grid :    37 points, outermost radius =    5.000 A
  | Found multiplier for basic radial grid :   1
  | Found angular grid specification: user-specified.
  | Specified grid contains     4 separate shells.
  | Check grid settings after all constraints further below.
  | Found free-atom valence shell :  2 s   2.000
  | Found free-atom valence shell :  2 p   5.000
  | Found free-ion valence shell :  2 s   1.000
  | Found free-ion valence shell :  2 p   4.000
  | Found hydrogenic basis function :  2 p   1.700
  | Found hydrogenic basis function :  3 d   7.400
  | Found hydrogenic basis function :  3 s   6.800
  Species F                   : Missing cutoff potential type.
  Defaulting to exp(1/x)/(1-x)^2 type cutoff potential.
  Species F : No 'logarithmic' tag. Using default grid for free atom:
  | Default logarithmic grid data [bohr] : 0.1000E-03 0.1000E+03 0.1012E+01
  Species F : On-site basis accuracy parameter (for Gram-Schmidt orthonormalisation) not specified.
  Using default value basis_acc =  0.1000000E-03.
  Species F                   : Using default innermost maximum threshold i_radial=  2 for radial functions.
  Species F                   : Default cutoff onset for free atom density etc. : 0.35000000E+01 AA.
  Species F                   : Basic radial grid will be enhanced according to radial_multiplier =   1, to contain    37 grid points.
 
  Finished reading input file 'control.in'.
 
------------------------------------------------------------


------------------------------------------------------------
          Reading geometry description geometry.in.
------------------------------------------------------------
  | The smallest distance between any two atoms is         1.36401124 AA.
  | The first atom of this pair is atom number                      3 .
  | The second atom of this pair is atom number                     4 .
  Input structure read successfully.
  The structure contains       12 atoms,  and a total of        120.000 electrons.

  Input geometry:
  | No unit cell requested.
  | Atomic structure:
  |       Atom                x [A]            y [A]            z [A]
  |    1: Species Al           -0.58307684        0.98330096       -1.95842054
  |    2: Species Al           -0.48094358        1.06679529        1.26205960
  |    3: Species Al           -3.30431130        0.39475588       -1.98128101
  |    4: Species F            -3.44703566        0.33806054       -3.33661936
  |    5: Species F            -1.25933976       -0.52649070       -1.83437514
  |    6: Species F            -1.82323449        2.08270139       -1.88413876
  |    7: Species F            -1.99072938        0.72550985        0.47588891
  |    8: Species F             0.68330542        1.29219950       -0.11230337
  |    9: Species F            -0.29843178        2.76075680        1.99727497
  |   10: Species F             0.37877341       -0.37273787        2.05703556
  |   11: Species F            -4.14415097        0.23757553       -0.70590411
  |   12: Species F             0.78344642        1.25362750       -3.26946264

 
  Finished reading input file 'control.in'.
 

------------------------------------------------------------
          Reading geometry description geometry.in.
------------------------------------------------------------
 
  Consistency checks for stacksize environment parameter are next.
 
  | Maximum stacksize for task 0: unlimited
  | Maximum stacksize for task 1: unlimited
  | Maximum stacksize for task 2: unlimited
  | Maximum stacksize for task 3: unlimited
  | Maximum stacksize for task 4: unlimited
  | Maximum stacksize for task 5: unlimited
  | Maximum stacksize for task 6: unlimited
  | Maximum stacksize for task 7: unlimited
  | Maximum stacksize for task 8: unlimited
  | Maximum stacksize for task 9: unlimited
  | Maximum stacksize for task 10: unlimited
  | Maximum stacksize for task 11: unlimited
  | Maximum stacksize for task 12: unlimited
  | Maximum stacksize for task 13: unlimited
  | Maximum stacksize for task 14: unlimited
  | Maximum stacksize for task 15: unlimited
  | Maximum stacksize for task 16: unlimited
  | Maximum stacksize for task 17: unlimited
  | Maximum stacksize for task 18: unlimited
  | Maximum stacksize for task 19: unlimited
  | Maximum stacksize for task 20: unlimited
  | Maximum stacksize for task 21: unlimited
  | Maximum stacksize for task 22: unlimited
  | Maximum stacksize for task 23: unlimited
  | Current stacksize for task 0: unlimited
  | Current stacksize for task 1: unlimited
  | Current stacksize for task 2: unlimited
  | Current stacksize for task 3: unlimited
  | Current stacksize for task 4: unlimited
  | Current stacksize for task 5: unlimited
  | Current stacksize for task 6: unlimited
  | Current stacksize for task 7: unlimited
  | Current stacksize for task 8: unlimited
  | Current stacksize for task 9: unlimited
  | Current stacksize for task 10: unlimited
  | Current stacksize for task 11: unlimited
  | Current stacksize for task 12: unlimited
  | Current stacksize for task 13: unlimited
  | Current stacksize for task 14: unlimited
  | Current stacksize for task 15: unlimited
  | Current stacksize for task 16: unlimited
  | Current stacksize for task 17: unlimited
  | Current stacksize for task 18: unlimited
  | Current stacksize for task 19: unlimited
  | Current stacksize for task 20: unlimited
  | Current stacksize for task 21: unlimited
  | Current stacksize for task 22: unlimited
  | Current stacksize for task 23: unlimited
 
  Consistency checks for the contents of control.in are next.
 
  MPI_IN_PLACE appears to work with this MPI implementation.
  | Keeping use_mpi_in_place .true. (see manual).
  Target number of points in a grid batch is not set. Defaulting to  100
  Method for grid partitioning is not set. Defaulting to parallel hash+maxmin partitioning.
  Batch size limit is not set. Defaulting to    200
  By default, will store active basis functions for each batch.
  If in need of memory, prune_basis_once .false. can be used to disable this option.
  communication_type for Hartree potential was not specified.
  Defaulting to calc_hartree .
  Pulay mixer: Number of initial linear mixing iterations not set.
  Defaulting to    0 iterations.
  Work space size for distributed Hartree potential not set.
  Defaulting to   0.200000E+03 MB.
  Algorithm-dependent basis array size parameters:
  | n_max_pulay                         :       10
  Presetting      1001 iterations before the initial mixing cycle
  is restarted anyway using the sc_init_iter criterion / keyword.
  Presetting a factor      1.000 between actual scf density residual
  and density convergence criterion sc_accuracy_rho below which sc_init_iter
  takes no effect.
  Geometry relaxation not requested: no relaxation will be performed.
  Forces evaluation will include force correction term due to incomplete self-consistency (default).
  Handling of forces: Unphysical translation and rotation will be removed from forces.
  No accuracy limit for integral partition fn. given. Defaulting to  0.1000E-14.
  No threshold value for u(r) in integrations given. Defaulting to  0.1000E-05.
  No accuracy for occupation numbers given. Defaulting to  0.1000E-12.
  No threshold value for occupation numbers given. Defaulting to  0.0000E+00.
  No accuracy for fermi level given. Defaulting to  0.1000E-19.
  Maximum # of iterations to find E_F not set. Defaulting to  200.
  Preferred method for the eigenvalue solver ('KS_method') not specified in 'control.in'.
  Calling BLACS routine to test compilation state
  Since ScaLAPACK support is enabled, defaulting to ELPA (via ELSI).
  Will not use alltoall communication since running on < 1024 CPUs.
  Threshold for basis singularities not set.
  Default threshold for basis singularities:  0.1000E-04
  partition_type (choice of integration weights) for integrals was not specified.
  | Using a version of the partition function of Stratmann and coworkers ('stratmann_sparse').
  | At each grid point, the set of atoms used to build the partition table is smoothly restricted to
  | only those atoms whose free-atom density would be non-zero at that grid point.
  Partitioning for Hartree potential was not defined. Using partition_type for integrals.
  | Adjusted default value of keyword multip_moments_threshold to:       0.10000000E-11
  | This value may affect high angular momentum components of the Hartree potential in periodic systems.
  No q(lm)/r^(l+1) cutoff set for long-range Hartree potential.
  | Using default value of  0.100000E-09 .
  | Verify using the multipole_threshold keyword.
  Defaulting to new monopole extrapolation.
  Density update method: automatic selection selected.
  Charge integration errors on the 3D integration grid will be compensated
  by explicit normalization and distribution of residual charges.
  Use the "compensate_multipole_errors" flag to change this behaviour.
  Set 'collect_eigenvectors' to be '.true.' for use_density_matrix .false.
 
  Consistency checks for the contents of geometry.in are next.
 
  Number of empty states per atom not set in control.in - providing a guess from actual geometry.
  | Total number of empty states used during s.c.f. cycle:       36
  If you use a very high smearing, use empty_states (per atom!) in control.in to increase this value.

  Structure-dependent array size parameters: 
  | Maximum number of distinct radial functions  :       14
  | Maximum number of basis functions            :      180
  | Number of Kohn-Sham states (occupied + empty):       96
------------------------------------------------------------

------------------------------------------------------------
          Preparing all fixed parts of the calculation.
------------------------------------------------------------
  Determining machine precision:
    2.225073858507201E-308
  Setting up grids for atomic and cluster calculations.

  Creating wave function, potential, and density for free atoms.

  Species: Al

  List of occupied orbitals and eigenvalues:
    n    l              occ      energy [Ha]    energy [eV]
    1    0           2.0000       -55.621123     -1513.5278
    2    0           2.0000        -3.957030      -107.6763
    3    0           2.0000        -0.272233        -7.4078
    2    1           6.0000        -2.540949       -69.1427
    3    1           1.0000        -0.083300        -2.2667


  Species: F

  List of occupied orbitals and eigenvalues:
    n    l              occ      energy [Ha]    energy [eV]
    1    0           2.0000       -24.399611      -663.9472
    2    0           2.0000        -1.098702       -29.8972
    2    1           5.0000        -0.408210       -11.1080


  Adding cutoff potential to free-atom effective potential.
  Creating fixed part of basis set: Ionic, confined, hydrogenic.
 
  Al                   ion:

  List of free ionic orbitals and eigenvalues:
    n    l      energy [Ha]    energy [eV]
    1    0       -56.418846     -1535.2349
    2    0        -4.732717      -128.7838
    3    0        -0.872690       -23.7471
    2    1        -3.317230       -90.2664


  List of ionic basis orbitals and eigenvalues:
    n    l      energy [Ha]    energy [eV]    outer radius [A]
    3    2        -0.346815        -9.4373       4.594041
    3    1        -0.631870       -17.1940       4.538221
    3    0        -0.872657       -23.7462       4.538221

 
  F                    hydrogenic:
 
  List of hydrogenic basis orbitals: 
    n    l      effective z      eigenvalue [eV]  inner max. [A]     outer max. [A]     outer radius [A]   
    2    1         1.700000        -9.7616           1.243167           1.243167           4.598524
    3    2         7.400000       -82.7828           0.642437           0.642437           3.305741
    3    0         6.800000       -69.9026           0.057798           1.022307           3.781556
 
  Creating atomic-like basis functions for current effective potential.

  Species Al                  :

  List of atomic basis orbitals and eigenvalues:
    n    l      energy [Ha]    energy [eV]    outer radius [A]
    1    0       -55.621123     -1513.5278       0.850197
    2    0        -3.957030      -107.6763       3.144911
    3    0        -0.272233        -7.4078       4.594041
    2    1        -2.540949       -69.1427       3.731966
    3    1        -0.083300        -2.2667       4.594041


  Species F                   :

  List of atomic basis orbitals and eigenvalues:
    n    l      energy [Ha]    energy [eV]    outer radius [A]
    1    0       -24.399611      -663.9472       1.258458
    2    0        -1.098702       -29.8972       4.325857
    2    1        -0.408210       -11.1080       4.487453

  Assembling full basis from fixed parts.
  | Species Al :   atomic orbital   1 s accepted.
  | Species Al :   atomic orbital   2 s accepted.
  | Species Al :    ionic orbital   3 s accepted.
  | Species Al :   atomic orbital   3 s accepted.
  | Species Al :   atomic orbital   2 p accepted.
  | Species Al :    ionic orbital   3 p accepted.
  | Species Al :   atomic orbital   3 p accepted.
  | Species Al :    ionic orbital   3 d accepted.
  | Species F :   atomic orbital   1 s accepted.
  | Species F :    hydro orbital   3 s accepted.
  | Species F :   atomic orbital   2 s accepted.
  | Species F :   atomic orbital   2 p accepted.
  | Species F :    hydro orbital   2 p accepted.
  | Species F :    hydro orbital   3 d accepted.
 
  Basis size parameters after reduction:
  | Total number of radial functions:       14
  | Total number of basis functions :      180
 
  Per-task memory consumption for arrays in subroutine allocate_ext:
  |           4.807768MB.
  Testing on-site integration grid accuracy.
  |  Species  Function  <phi|h_atom|phi> (log., in eV)  <phi|h_atom|phi> (rad., in eV)
           1        1              -1513.5277717935              -1513.5271881332
           1        2               -107.6762691836               -107.6762662489
           1        3                 -6.9467474784                 -6.9471269649
           1        4                  5.5771951849                  5.4862107220 ***
           1        5                -69.1427313144                -69.1427312731
           1        6                 -1.5197375330                 -1.5230432022
           1        7                  6.8210948310                  6.5529872240 ***
           1        8                  4.3216540965                  4.2851170187 ***
           2        9               -663.9471986398               -663.9470363334
           2       10                 16.8514011578                 16.8512525338
           2       11                -28.4490593856                -28.4490661472
           2       12                -11.1080115307                -11.1080620173
           2       13                  7.1940182175                  7.1685154137
           2       14                 44.8544281765                 44.8543763625
 * Note: Onsite integrals marked "***" above are less accurate than
 * onsite_accuracy_threshold =    0.03000 eV. Usually, this is harmless.
 * When in doubt, tighten the "radial" and/or "radial_multiplier" flags to check.

  Preparing densities etc. for the partition functions (integrals / Hartree potential).

  Preparations completed.
  max(cpu_time)          :      0.184 s.
  Wall clock time (cpu1) :      0.184 s.
------------------------------------------------------------

------------------------------------------------------------
          Begin self-consistency loop: Initialization.

          Date     :  20220517, Time     :  115851.194
------------------------------------------------------------

  Initializing index lists of integration centers etc. from given atomic structure:
  | Number of centers in hartree potential         :        12
  | Number of centers in hartree multipole         :        12
  | Number of centers in electron density summation:        12
  | Number of centers in basis integrals           :        12
  | Number of centers in integrals                 :        12
  | Number of centers in hamiltonian               :        12
  * Using 24 tasks for Scalapack Eigenvalue solver.
  Detailed listing of tasks and assigned k-points:
  (for non-periodic systems, the "k-point" denotes an internal label only)
   Task     0 k-point     1 on node-k98a-025
   Task     1 k-point     1 on node-k98a-025
   Task     2 k-point     1 on node-k98a-025
   Task     3 k-point     1 on node-k98a-025
   Task     4 k-point     1 on node-k98a-025
   Task     5 k-point     1 on node-k98a-025
   Task     6 k-point     1 on node-k98a-025
   Task     7 k-point     1 on node-k98a-025
   Task     8 k-point     1 on node-k98a-025
   Task     9 k-point     1 on node-k98a-025
   Task    10 k-point     1 on node-k98a-025
   Task    11 k-point     1 on node-k98a-025
   Task    12 k-point     1 on node-k98a-025
   Task    13 k-point     1 on node-k98a-025
   Task    14 k-point     1 on node-k98a-025
   Task    15 k-point     1 on node-k98a-025
   Task    16 k-point     1 on node-k98a-025
   Task    17 k-point     1 on node-k98a-025
   Task    18 k-point     1 on node-k98a-025
   Task    19 k-point     1 on node-k98a-025
   Task    20 k-point     1 on node-k98a-025
   Task    21 k-point     1 on node-k98a-025
   Task    22 k-point     1 on node-k98a-025
   Task    23 k-point     1 on node-k98a-025
  Tasks:    24 split into      6 X      4 BLACS grid
  Calculating block size based on n_basis =          180  max_nprow =            6  max_npcol =            4
  ScaLAPACK block size set to:           16
  Allocating        0.012 MB for ovlp
  Allocating        0.012 MB for ham
  Allocating        0.012 MB for eigenvec
  Required Scalapack workspace - INTEGER:            1  REAL:             1
  Partitioning the integration grid into batches with parallel hashing+maxmin method.
  | Number of batches:     1019
  | Maximal batch size:     196
  | Minimal batch size:      17
  | Average batch size:      90.206
  | Standard deviation of batch sizes:      31.226

  Integration load balanced across    24 MPI tasks.
  Work distribution over tasks is as follows:
  Task     0 has       3901 integration points.
  Task     1 has       3793 integration points.
  Task     2 has       3840 integration points.
  Task     3 has       3797 integration points.
  Task     4 has       3822 integration points.
  Task     5 has       3749 integration points.
  Task     6 has       3788 integration points.
  Task     7 has       3904 integration points.
  Task     8 has       3763 integration points.
  Task     9 has       3861 integration points.
  Task    10 has       3793 integration points.
  Task    11 has       3831 integration points.
  Task    12 has       3835 integration points.
  Task    13 has       3769 integration points.
  Task    14 has       3938 integration points.
  Task    15 has       3814 integration points.
  Task    16 has       3836 integration points.
  Task    17 has       3877 integration points.
  Task    18 has       3800 integration points.
  Task    19 has       3893 integration points.
  Task    20 has       3826 integration points.
  Task    21 has       3838 integration points.
  Task    22 has       3884 integration points.
  Task    23 has       3768 integration points.
  Initializing partition tables, free-atom densities, potentials, etc. across the integration grid (initialize_grid_storage).
  | initialize_grid_storage: Actual outermost partition radius vs. multipole_radius_free
  | (-- VB: in principle, multipole_radius_free should be larger, hence this output)
  | Species        1: Confinement radius =              4.999999999999999 AA, multipole_radius_free =              5.004487022111096 AA.
  | Species        1: outer_partition_radius set to              5.004487022111096 AA .
  | Species        2: Confinement radius =              4.999999999999999 AA, multipole_radius_free =              5.009370088163274 AA.
  | Species        2: outer_partition_radius set to              5.009370088163274 AA .
  | The sparse table of interatomic distances needs          1.64 kbyte instead of         1.15 kbyte of memory.
  | Using the partition_type stratmann_smoother will reduce your memory usage.
  | Net number of integration points:    91920
  | of which are non-zero points    :    85460
  Renormalizing the initial density to the exact electron count on the 3D integration grid.
  | Initial density: Formal number of electrons (from input files) :     120.0000000000
  | Integrated number of electrons on 3D grid     :     119.9999174341
  | Charge integration error                      :      -0.0000825659
  | Normalization factor for density and gradient :       1.0000006880
  Renormalizing the free-atom superposition density to the exact electron count on the 3D integration grid.
  | Formal number of electrons (from input files) :     120.0000000000
  | Integrated number of electrons on 3D grid     :     119.9999174341
  | Charge integration error                      :      -0.0000825659
  | Normalization factor for density and gradient :       1.0000006880
  Obtaining max. number of non-zero basis functions in each batch (get_n_compute_maxes).
  | Maximal number of non-zero basis functions:      165 in task     0
  | Maximal number of non-zero basis functions:      165 in task     1
  | Maximal number of non-zero basis functions:      165 in task     2
  | Maximal number of non-zero basis functions:      158 in task     3
  | Maximal number of non-zero basis functions:      165 in task     4
  | Maximal number of non-zero basis functions:      171 in task     5
  | Maximal number of non-zero basis functions:      159 in task     6
  | Maximal number of non-zero basis functions:      170 in task     7
  | Maximal number of non-zero basis functions:      171 in task     8
  | Maximal number of non-zero basis functions:      165 in task     9
  | Maximal number of non-zero basis functions:      163 in task    10
  | Maximal number of non-zero basis functions:      164 in task    11
  | Maximal number of non-zero basis functions:      165 in task    12
  | Maximal number of non-zero basis functions:      165 in task    13
  | Maximal number of non-zero basis functions:      170 in task    14
  | Maximal number of non-zero basis functions:      166 in task    15
  | Maximal number of non-zero basis functions:      170 in task    16
  | Maximal number of non-zero basis functions:      165 in task    17
  | Maximal number of non-zero basis functions:      161 in task    18
  | Maximal number of non-zero basis functions:      171 in task    19
  | Maximal number of non-zero basis functions:      165 in task    20
  | Maximal number of non-zero basis functions:      160 in task    21
  | Maximal number of non-zero basis functions:      160 in task    22
  | Maximal number of non-zero basis functions:      163 in task    23
  Selecting the method for density update.
  Loop over occupied states selected for charge density update.
  Allocating        0.132 MB for KS_eigenvector
  Integrating Hamiltonian matrix: batch-based integration.
  Time summed over all CPUs for integration: real work        0.702 s, elapsed        0.739 s
  Integrating overlap matrix.
  Time summed over all CPUs for integration: real work        0.273 s, elapsed        0.291 s
  Deallocating overlap matrix.

  Updating Kohn-Sham eigenvalues and eigenvectors using ELSI and the ELPA eigensolver.
  Overlap matrix is not singular
  | Lowest and highest eigenvalues :  0.4679E-02,  0.5182E+01
  Finished singularity check of overlap matrix
  | Time :     0.004 s
  Starting ELPA eigensolver
  Finished Cholesky decomposition
  | Time :     0.001 s
  Finished transformation to standard eigenproblem
  | Time :     0.001 s
  Finished solving standard eigenproblem
  | Time :     0.004 s
  Finished back-transformation of eigenvectors
  | Time :     0.000 s

  Obtaining occupation numbers and chemical potential using ELSI.
  | Chemical potential (Fermi level):    -8.00166011 eV
  Writing Kohn-Sham eigenvalues.

  State    Occupation    Eigenvalue [Ha]    Eigenvalue [eV]
      1       2.00000         -55.495894        -1510.12010
      2       2.00000         -55.486263        -1509.85804
      3       2.00000         -55.483666        -1509.78736
      4       2.00000         -24.449811         -665.31320
      5       2.00000         -24.391348         -663.72235
      6       2.00000         -24.374166         -663.25481
      7       2.00000         -24.374166         -663.25481
      8       2.00000         -24.354000         -662.70607
      9       2.00000         -24.350560         -662.61244
     10       2.00000         -24.336203         -662.22177
     11       2.00000         -24.336203         -662.22177
     12       2.00000         -24.330683         -662.07156
     13       2.00000          -3.969509         -108.01584
     14       2.00000          -3.952897         -107.56379
     15       2.00000          -3.949048         -107.45905
     16       2.00000          -2.577572          -70.13930
     17       2.00000          -2.557222          -69.58555
     18       2.00000          -2.553934          -69.49607
     19       2.00000          -2.546675          -69.29856
     20       2.00000          -2.545898          -69.27740
     21       2.00000          -2.542392          -69.18201
     22       2.00000          -2.541846          -69.16715
     23       2.00000          -2.540669          -69.13512
     24       2.00000          -2.540484          -69.13010
     25       2.00000          -1.277420          -34.76035
     26       2.00000          -1.215038          -33.06286
     27       2.00000          -1.203359          -32.74505
     28       2.00000          -1.193105          -32.46604
     29       2.00000          -1.171361          -31.87436
     30       2.00000          -1.163853          -31.67005
     31       2.00000          -1.143028          -31.10339
     32       2.00000          -1.141742          -31.06838
     33       2.00000          -1.134779          -30.87891
     34       2.00000          -0.594238          -16.17005
     35       2.00000          -0.569795          -15.50491
     36       2.00000          -0.564639          -15.36462
     37       2.00000          -0.556862          -15.15300
     38       2.00000          -0.548779          -14.93303
     39       2.00000          -0.542000          -14.74856
     40       2.00000          -0.526516          -14.32723
     41       2.00000          -0.526244          -14.31982
     42       2.00000          -0.513468          -13.97219
     43       2.00000          -0.509317          -13.85922
     44       2.00000          -0.507372          -13.80630
     45       2.00000          -0.494270          -13.44976
     46       2.00000          -0.492327          -13.39689
     47       2.00000          -0.490674          -13.35193
     48       2.00000          -0.484913          -13.19515
     49       2.00000          -0.484094          -13.17287
     50       2.00000          -0.479119          -13.03750
     51       2.00000          -0.469533          -12.77663
     52       2.00000          -0.466062          -12.68218
     53       2.00000          -0.462617          -12.58844
     54       2.00000          -0.460965          -12.54348
     55       2.00000          -0.449874          -12.24171
     56       2.00000          -0.445508          -12.12290
     57       2.00000          -0.442239          -12.03395
     58       2.00000          -0.440561          -11.98827
     59       2.00000          -0.439794          -11.96741
     60       2.00000          -0.439377          -11.95606
     61       0.00000          -0.145821           -3.96800
     62       0.00000          -0.098708           -2.68598
     63       0.00000          -0.081432           -2.21589
     64       0.00000          -0.028957           -0.78797
     65       0.00000          -0.023457           -0.63829
     66       0.00000           0.001228            0.03342
     67       0.00000           0.011930            0.32464
     68       0.00000           0.032519            0.88488
     69       0.00000           0.039243            1.06785
     70       0.00000           0.047218            1.28487
     71       0.00000           0.080906            2.20155
     72       0.00000           0.107125            2.91502
     73       0.00000           0.136840            3.72360
     74       0.00000           0.163688            4.45417
     75       0.00000           0.167608            4.56085
     76       0.00000           0.169924            4.62387
     77       0.00000           0.178775            4.86472
     78       0.00000           0.184302            5.01511
     79       0.00000           0.195152            5.31036
     80       0.00000           0.203224            5.53000
     81       0.00000           0.204807            5.57308
     82       0.00000           0.213260            5.80311
     83       0.00000           0.224253            6.10225
     84       0.00000           0.224608            6.11189
     85       0.00000           0.242924            6.61031
     86       0.00000           0.250562            6.81815
     87       0.00000           0.263931            7.18193
     88       0.00000           0.271266            7.38152
     89       0.00000           0.299724            8.15591
     90       0.00000           0.301404            8.20162
     91       0.00000           0.318141            8.65705
     92       0.00000           0.326130            8.87446
     93       0.00000           0.333248            9.06815
     94       0.00000           0.347653            9.46012
     95       0.00000           0.349740            9.51690
     96       0.00000           0.360512            9.81002

  Highest occupied state (VBM) at    -11.95605503 eV
  | Occupation number:      2.00000000

  Lowest unoccupied state (CBM) at    -3.96799787 eV
  | Occupation number:      0.00000000

  Overall HOMO-LUMO gap:      7.98805716 eV.
  Calculating total energy contributions from superposition of free atom densities.

  Total energy components:
  | Sum of eigenvalues            :        -889.25189788 Ha      -24197.77531054 eV
  | XC energy correction          :        -144.43571529 Ha       -3930.29578426 eV
  | XC potential correction       :         188.07109355 Ha        5117.67484001 eV
  | Free-atom electrostatic energy:        -779.63222679 Ha      -21214.87229167 eV
  | Hartree energy correction     :           0.00000000 Ha           0.00000000 eV
  | Entropy correction            :           0.00000000 Ha           0.00000000 eV
  | ---------------------------
  | Total energy                  :       -1625.24874640 Ha      -44225.26854647 eV
  | Total energy, T -> 0          :       -1625.24874640 Ha      -44225.26854647 eV  <-- do not rely on this value for anything but (periodic) metals
  | Electronic free energy        :       -1625.24874640 Ha      -44225.26854647 eV

  Derived energy quantities:
  | Kinetic energy                :        1628.01469805 Ha       44300.53392029 eV
  | Electrostatic energy          :       -3108.82772916 Ha      -84595.50668250 eV
  | Energy correction for multipole
  | error in Hartree potential    :           0.00000000 Ha           0.00000000 eV
  | Sum of eigenvalues per atom                           :       -2016.48127588 eV
  | Total energy (T->0) per atom                          :       -3685.43904554 eV  <-- do not rely on this value for anything but (periodic) metals
  | Electronic free energy per atom                       :       -3685.43904554 eV
  Initialize hartree_potential_storage
  Max. number of atoms included in rho_multipole:           12

  End scf initialization - timings             :  max(cpu_time)    wall_clock(cpu1)
  | Time for scf. initialization                :        0.113 s           0.113 s
  | Boundary condition initialization           :        0.000 s           0.000 s
  | Integration                                 :        0.044 s           0.044 s
  | Solution of K.-S. eqns.                     :        0.011 s           0.011 s
  | Grid partitioning                           :        0.036 s           0.036 s
  | Preloading free-atom quantities on grid     :        0.015 s           0.015 s
  | Free-atom superposition energy              :        0.005 s           0.004 s
  | Total energy evaluation                     :        0.000 s           0.001 s

  Partial memory accounting:
  | Current value for overall tracked memory usage:
  |   Minimum:        0.273 MB (on task 23)
  |   Maximum:        0.292 MB (on task  0)
  |   Average:        0.287 MB
  | Peak value for overall tracked memory usage:
  |   Minimum:        1.310 MB (on task  3 after allocating wave)
  |   Maximum:        1.410 MB (on task  5 after allocating wave)
  |   Average:        1.364 MB
  | Largest tracked array allocation so far:
  |   Minimum:        0.236 MB (H_times_psi on task  3)
  |   Maximum:        0.469 MB (all_coords on task 10)
  |   Average:        0.270 MB
  Note:  These values currently only include a subset of arrays which are explicitly tracked.
  The "true" memory usage will be greater.
------------------------------------------------------------
  Evaluating new KS density.
  Integration grid: deviation in total charge (<rho> - N_e) =   5.684342E-14

  Time for density update prior                :  max(cpu_time)    wall_clock(cpu1)
  | self-consistency iterative process          :        0.028 s           0.028 s

------------------------------------------------------------
          Begin self-consistency iteration #    1

  Date     :  20220517, Time     :  115851.336
------------------------------------------------------------
  Pulay mixing of updated and previous charge densities.
  Renormalizing the density to the exact electron count on the 3D integration grid.
  | Formal number of electrons (from input files) :     120.0000000000
  | Integrated number of electrons on 3D grid     :     120.0000000000
  | Charge integration error                      :       0.0000000000
  | Normalization factor for density and gradient :       1.0000000000

  Evaluating partitioned Hartree potential by multipole expansion.
  | Original multipole sum: apparent total charge =   0.277462E-13
  | Sum of charges compensated after spline to logarithmic grids =   0.148574E-03
  | Analytical far-field extrapolation by fixed multipoles:
  | Hartree multipole sum: apparent total charge =   0.273527E-13
  Summing up the Hartree potential.
  Time summed over all CPUs for potential: real work        0.381 s, elapsed        0.397 s
  | RMS charge density error from multipole expansion :   0.126397E-01

  Integrating Hamiltonian matrix: batch-based integration.
  Time summed over all CPUs for integration: real work        0.661 s, elapsed        0.692 s

  Updating Kohn-Sham eigenvalues and eigenvectors using ELSI and the ELPA eigensolver.
  Starting ELPA eigensolver
  Finished transformation to standard eigenproblem
  | Time :     0.000 s
  Finished solving standard eigenproblem
  | Time :     0.003 s
  Finished back-transformation of eigenvectors
  | Time :     0.001 s

  Obtaining occupation numbers and chemical potential using ELSI.
  | Chemical potential (Fermi level):    -4.72079983 eV
  Writing Kohn-Sham eigenvalues.

  State    Occupation    Eigenvalue [Ha]    Eigenvalue [eV]
      1       2.00000         -55.643852        -1514.14624
      2       2.00000         -55.612593        -1513.29566
      3       2.00000         -55.577651        -1512.34483
      4       2.00000         -24.227416         -659.26152
      5       2.00000         -24.227411         -659.26140
      6       2.00000         -24.166855         -657.61358
      7       2.00000         -24.149879         -657.15164
      8       2.00000         -24.133705         -656.71153
      9       2.00000         -24.132406         -656.67619
     10       2.00000         -24.047555         -654.36728
     11       2.00000         -24.025670         -653.77176
     12       2.00000         -24.025668         -653.77168
     13       2.00000          -4.088187         -111.24523
     14       2.00000          -4.077930         -110.96612
     15       2.00000          -4.020711         -109.40911
     16       2.00000          -2.681742          -72.97392
     17       2.00000          -2.681120          -72.95697
     18       2.00000          -2.679662          -72.91732
     19       2.00000          -2.676926          -72.84285
     20       2.00000          -2.668148          -72.60400
     21       2.00000          -2.667069          -72.57465
     22       2.00000          -2.614469          -71.14332
     23       2.00000          -2.613244          -71.10999
     24       2.00000          -2.612127          -71.07960
     25       2.00000          -1.177659          -32.04574
     26       2.00000          -1.166214          -31.73430
     27       2.00000          -1.154828          -31.42447
     28       2.00000          -1.107572          -30.13857
     29       2.00000          -1.078127          -29.33732
     30       2.00000          -1.068123          -29.06511
     31       2.00000          -0.990352          -26.94885
     32       2.00000          -0.974138          -26.50765
     33       2.00000          -0.970810          -26.41709
     34       2.00000          -0.538924          -14.66486
     35       2.00000          -0.526350          -14.32271
     36       2.00000          -0.502519          -13.67424
     37       2.00000          -0.489874          -13.33014
     38       2.00000          -0.483090          -13.14555
     39       2.00000          -0.472678          -12.86223
     40       2.00000          -0.461962          -12.57064
     41       2.00000          -0.456687          -12.42707
     42       2.00000          -0.451007          -12.27253
     43       2.00000          -0.446295          -12.14429
     44       2.00000          -0.441418          -12.01158
     45       2.00000          -0.430850          -11.72402
     46       2.00000          -0.407308          -11.08342
     47       2.00000          -0.406417          -11.05917
     48       2.00000          -0.390285          -10.62019
     49       2.00000          -0.386825          -10.52606
     50       2.00000          -0.370241          -10.07477
     51       2.00000          -0.368166          -10.01831
     52       2.00000          -0.357488           -9.72776
     53       2.00000          -0.342659           -9.32422
     54       2.00000          -0.319220           -8.68642
     55       2.00000          -0.304214           -8.27808
     56       2.00000          -0.303628           -8.26214
     57       2.00000          -0.291457           -7.93095
     58       2.00000          -0.285532           -7.76973
     59       2.00000          -0.278736           -7.58479
     60       2.00000          -0.276725           -7.53006
     61       0.00000          -0.159541           -4.34134
     62       0.00000          -0.097764           -2.66029
     63       0.00000          -0.057303           -1.55930
     64       0.00000          -0.047910           -1.30370
     65       0.00000          -0.035427           -0.96403
     66       0.00000          -0.010477           -0.28510
     67       0.00000           0.013827            0.37624
     68       0.00000           0.037173            1.01152
     69       0.00000           0.068068            1.85223
     70       0.00000           0.069100            1.88030
     71       0.00000           0.075739            2.06095
     72       0.00000           0.104019            2.83049
     73       0.00000           0.119230            3.24443
     74       0.00000           0.160655            4.37166
     75       0.00000           0.161125            4.38442
     76       0.00000           0.169859            4.62209
     77       0.00000           0.181473            4.93812
     78       0.00000           0.189743            5.16318
     79       0.00000           0.198433            5.39964
     80       0.00000           0.211418            5.75298
     81       0.00000           0.213500            5.80963
     82       0.00000           0.226892            6.17404
     83       0.00000           0.241371            6.56804
     84       0.00000           0.245885            6.69087
     85       0.00000           0.249958            6.80169
     86       0.00000           0.255822            6.96128
     87       0.00000           0.256768            6.98701
     88       0.00000           0.282616            7.69038
     89       0.00000           0.287808            7.83167
     90       0.00000           0.299752            8.15667
     91       0.00000           0.319549            8.69537
     92       0.00000           0.334372            9.09871
     93       0.00000           0.347987            9.46920
     94       0.00000           0.360135            9.79976
     95       0.00000           0.364407            9.91603
     96       0.00000           0.373559           10.16505

  Highest occupied state (VBM) at     -7.53006075 eV
  | Occupation number:      2.00000000

  Lowest unoccupied state (CBM) at    -4.34133738 eV
  | Occupation number:      0.00000000

  Overall HOMO-LUMO gap:      3.18872337 eV.

  Total energy components:
  | Sum of eigenvalues            :        -881.06074991 Ha      -23974.88283358 eV
  | XC energy correction          :        -145.94919282 Ha       -3971.47960316 eV
  | XC potential correction       :         190.06086950 Ha        5171.81939826 eV
  | Free-atom electrostatic energy:        -779.63222679 Ha      -21214.87229167 eV
  | Hartree energy correction     :          -8.41130990 Ha        -228.88338792 eV
  | Entropy correction            :           0.00000000 Ha           0.00000000 eV
  | ---------------------------
  | Total energy                  :       -1624.99260992 Ha      -44218.29871808 eV
  | Total energy, T -> 0          :       -1624.99260992 Ha      -44218.29871808 eV  <-- do not rely on this value for anything but (periodic) metals
  | Electronic free energy        :       -1624.99260992 Ha      -44218.29871808 eV

  Derived energy quantities:
  | Kinetic energy                :        1635.94235128 Ha       44516.25634062 eV
  | Electrostatic energy          :       -3114.98576838 Ha      -84763.07545554 eV
  | Energy correction for multipole
  | error in Hartree potential    :           0.05251610 Ha           1.42903566 eV
  | Sum of eigenvalues per atom                           :       -1997.90690280 eV
  | Total energy (T->0) per atom                          :       -3684.85822651 eV  <-- do not rely on this value for anything but (periodic) metals
  | Electronic free energy per atom                       :       -3684.85822651 eV
  Evaluating new KS density.
  Integration grid: deviation in total charge (<rho> - N_e) =   2.842171E-14

  Self-consistency convergence accuracy:
  | Change of charge density      :  0.6537E+00
  | Change of sum of eigenvalues  :  0.2229E+03 eV
  | Change of total energy        :  0.6970E+01 eV


------------------------------------------------------------
  End self-consistency iteration #     1       :  max(cpu_time)    wall_clock(cpu1)
  | Time for this iteration                     :        0.080 s           0.080 s
  | Charge density update                       :        0.027 s           0.027 s
  | Density mixing                              :        0.000 s           0.000 s
  | Hartree multipole update                    :        0.001 s           0.001 s
  | Hartree multipole summation                 :        0.017 s           0.017 s
  | Integration                                 :        0.029 s           0.030 s
  | Solution of K.-S. eqns.                     :        0.004 s           0.004 s
  | Total energy evaluation                     :        0.000 s           0.001 s

  Partial memory accounting:
  | Current value for overall tracked memory usage:
  |   Minimum:        0.273 MB (on task 23)
  |   Maximum:        0.292 MB (on task  0)
  |   Average:        0.287 MB
  | Peak value for overall tracked memory usage:
  |   Minimum:        1.310 MB (on task  3 after allocating wave)
  |   Maximum:        1.410 MB (on task  5 after allocating wave)
  |   Average:        1.364 MB
  | Largest tracked array allocation so far:
  |   Minimum:        0.709 MB (gradient_basis_wave on task  3)
  |   Maximum:        0.767 MB (gradient_basis_wave on task  5)
  |   Average:        0.741 MB
  Note:  These values currently only include a subset of arrays which are explicitly tracked.
  The "true" memory usage will be greater.
------------------------------------------------------------

------------------------------------------------------------
          Begin self-consistency iteration #    2

  Date     :  20220517, Time     :  115851.421
------------------------------------------------------------
  Pulay mixing of updated and previous charge densities.
  Renormalizing the density to the exact electron count on the 3D integration grid.
  | Formal number of electrons (from input files) :     120.0000000000
  | Integrated number of electrons on 3D grid     :     120.0000000000
  | Charge integration error                      :      -0.0000000000
  | Normalization factor for density and gradient :       1.0000000000

  Evaluating partitioned Hartree potential by multipole expansion.
  | Original multipole sum: apparent total charge =  -0.368966E-14
  | Sum of charges compensated after spline to logarithmic grids =   0.122631E-03
  | Analytical far-field extrapolation by fixed multipoles:
  | Hartree multipole sum: apparent total charge =  -0.400943E-14
  Summing up the Hartree potential.
  Time summed over all CPUs for potential: real work        0.379 s, elapsed        0.395 s
  | RMS charge density error from multipole expansion :   0.151126E-01

  Integrating Hamiltonian matrix: batch-based integration.
  Time summed over all CPUs for integration: real work        0.659 s, elapsed        0.688 s

  Updating Kohn-Sham eigenvalues and eigenvectors using ELSI and the ELPA eigensolver.
  Starting ELPA eigensolver
  Finished transformation to standard eigenproblem
  | Time :     0.000 s
  Finished solving standard eigenproblem
  | Time :     0.003 s
  Finished back-transformation of eigenvectors
  | Time :     0.001 s

  Obtaining occupation numbers and chemical potential using ELSI.
  | Chemical potential (Fermi level):    -7.87052510 eV
  Highest occupied state (VBM) at     -8.55692945 eV
  | Occupation number:      2.00000000

  Lowest unoccupied state (CBM) at    -4.60620314 eV
  | Occupation number:      0.00000000

  Overall HOMO-LUMO gap:      3.95072632 eV.

  Checking to see if s.c.f. parameters should be adjusted.

  Total energy components:
  | Sum of eigenvalues            :        -884.31120973 Ha      -24063.33234558 eV
  | XC energy correction          :        -145.45272288 Ha       -3957.96996891 eV
  | XC potential correction       :         189.40767591 Ha        5154.04509640 eV
  | Free-atom electrostatic energy:        -779.63222679 Ha      -21214.87229167 eV
  | Hartree energy correction     :          -4.94369161 Ha        -134.52469317 eV
  | Entropy correction            :           0.00000000 Ha           0.00000000 eV
  | ---------------------------
  | Total energy                  :       -1624.93217510 Ha      -44216.65420293 eV
  | Total energy, T -> 0          :       -1624.93217510 Ha      -44216.65420293 eV  <-- do not rely on this value for anything but (periodic) metals
  | Electronic free energy        :       -1624.93217510 Ha      -44216.65420293 eV

  Derived energy quantities:
  | Kinetic energy                :        1631.92701740 Ha       44406.99354653 eV
  | Electrostatic energy          :       -3111.40646962 Ha      -84665.67778056 eV
  | Energy correction for multipole
  | error in Hartree potential    :           0.05682547 Ha           1.54629968 eV
  | Sum of eigenvalues per atom                           :       -2005.27769547 eV
  | Total energy (T->0) per atom                          :       -3684.72118358 eV  <-- do not rely on this value for anything but (periodic) metals
  | Electronic free energy per atom                       :       -3684.72118358 eV
  Evaluating new KS density.
  Integration grid: deviation in total charge (<rho> - N_e) =   5.684342E-14

  Self-consistency convergence accuracy:
  | Change of charge density      :  0.4622E+00
  | Change of sum of eigenvalues  : -0.8845E+02 eV
  | Change of total energy        :  0.1645E+01 eV


------------------------------------------------------------
  End self-consistency iteration #     2       :  max(cpu_time)    wall_clock(cpu1)
  | Time for this iteration                     :        0.083 s           0.080 s
  | Charge density update                       :        0.027 s           0.027 s
  | Density mixing                              :        0.004 s           0.002 s
  | Hartree multipole update                    :        0.001 s           0.001 s
  | Hartree multipole summation                 :        0.017 s           0.017 s
  | Integration                                 :        0.029 s           0.029 s
  | Solution of K.-S. eqns.                     :        0.004 s           0.004 s
  | Total energy evaluation                     :        0.000 s           0.000 s

  Partial memory accounting:
  | Current value for overall tracked memory usage:
  |   Minimum:        0.274 MB (on task 23)
  |   Maximum:        0.293 MB (on task  0)
  |   Average:        0.288 MB
  | Peak value for overall tracked memory usage:
  |   Minimum:        1.310 MB (on task  3 after allocating wave)
  |   Maximum:        1.410 MB (on task  5 after allocating wave)
  |   Average:        1.364 MB
  | Largest tracked array allocation so far:
  |   Minimum:        0.709 MB (gradient_basis_wave on task  3)
  |   Maximum:        0.767 MB (gradient_basis_wave on task  5)
  |   Average:        0.741 MB
  Note:  These values currently only include a subset of arrays which are explicitly tracked.
  The "true" memory usage will be greater.
------------------------------------------------------------

------------------------------------------------------------
          Begin self-consistency iteration #    3

  Date     :  20220517, Time     :  115851.507
------------------------------------------------------------
  Pulay mixing of updated and previous charge densities.
  Renormalizing the density to the exact electron count on the 3D integration grid.
  | Formal number of electrons (from input files) :     120.0000000000
  | Integrated number of electrons on 3D grid     :     120.0000000000
  | Charge integration error                      :      -0.0000000000
  | Normalization factor for density and gradient :       1.0000000000

  Evaluating partitioned Hartree potential by multipole expansion.
  | Original multipole sum: apparent total charge =  -0.242042E-13
  | Sum of charges compensated after spline to logarithmic grids =   0.158233E-03
  | Analytical far-field extrapolation by fixed multipoles:
  | Hartree multipole sum: apparent total charge =  -0.218920E-13
  Summing up the Hartree potential.
  Time summed over all CPUs for potential: real work        0.379 s, elapsed        0.395 s
  | RMS charge density error from multipole expansion :   0.199314E-01

  Integrating Hamiltonian matrix: batch-based integration.
  Time summed over all CPUs for integration: real work        0.660 s, elapsed        0.691 s

  Updating Kohn-Sham eigenvalues and eigenvectors using ELSI and the ELPA eigensolver.
  Starting ELPA eigensolver
  Finished transformation to standard eigenproblem
  | Time :     0.001 s
  Finished solving standard eigenproblem
  | Time :     0.003 s
  Finished back-transformation of eigenvectors
  | Time :     0.000 s

  Obtaining occupation numbers and chemical potential using ELSI.
  | Chemical potential (Fermi level):    -7.88173343 eV
  Highest occupied state (VBM) at     -8.03059155 eV
  | Occupation number:      2.00000000

  Lowest unoccupied state (CBM) at    -4.83861819 eV
  | Occupation number:      0.00000000

  Overall HOMO-LUMO gap:      3.19197337 eV.

  Total energy components:
  | Sum of eigenvalues            :        -884.82436936 Ha      -24077.29612974 eV
  | XC energy correction          :        -145.45135940 Ha       -3957.93286658 eV
  | XC potential correction       :         189.40481931 Ha        5153.96736440 eV
  | Free-atom electrostatic energy:        -779.63222679 Ha      -21214.87229167 eV
  | Hartree energy correction     :          -4.42729641 Ha        -120.47286502 eV
  | Entropy correction            :          -0.00000000 Ha          -0.00000000 eV
  | ---------------------------
  | Total energy                  :       -1624.93043265 Ha      -44216.60678861 eV
  | Total energy, T -> 0          :       -1624.93043265 Ha      -44216.60678861 eV  <-- do not rely on this value for anything but (periodic) metals
  | Electronic free energy        :       -1624.93043265 Ha      -44216.60678861 eV

  Derived energy quantities:
  | Kinetic energy                :        1630.61531066 Ha       44371.30018994 eV
  | Electrostatic energy          :       -3110.09438391 Ha      -84629.97411198 eV
  | Energy correction for multipole
  | error in Hartree potential    :           0.07128930 Ha           1.93988054 eV
  | Sum of eigenvalues per atom                           :       -2006.44134414 eV
  | Total energy (T->0) per atom                          :       -3684.71723238 eV  <-- do not rely on this value for anything but (periodic) metals
  | Electronic free energy per atom                       :       -3684.71723238 eV
  Evaluating new KS density.
  Integration grid: deviation in total charge (<rho> - N_e) =   1.421085E-14

  Self-consistency convergence accuracy:
  | Change of charge density      :  0.1206E+00
  | Change of sum of eigenvalues  : -0.1396E+02 eV
  | Change of total energy        :  0.4741E-01 eV


------------------------------------------------------------
  End self-consistency iteration #     3       :  max(cpu_time)    wall_clock(cpu1)
  | Time for this iteration                     :        0.083 s           0.080 s
  | Charge density update                       :        0.027 s           0.027 s
  | Density mixing                              :        0.004 s           0.002 s
  | Hartree multipole update                    :        0.001 s           0.001 s
  | Hartree multipole summation                 :        0.017 s           0.017 s
  | Integration                                 :        0.029 s           0.029 s
  | Solution of K.-S. eqns.                     :        0.004 s           0.004 s
  | Total energy evaluation                     :        0.000 s           0.000 s

  Partial memory accounting:
  | Current value for overall tracked memory usage:
  |   Minimum:        0.274 MB (on task 23)
  |   Maximum:        0.293 MB (on task  0)
  |   Average:        0.288 MB
  | Peak value for overall tracked memory usage:
  |   Minimum:        1.310 MB (on task  3 after allocating wave)
  |   Maximum:        1.410 MB (on task  5 after allocating wave)
  |   Average:        1.364 MB
  | Largest tracked array allocation so far:
  |   Minimum:        0.709 MB (gradient_basis_wave on task  3)
  |   Maximum:        0.767 MB (gradient_basis_wave on task  5)
  |   Average:        0.741 MB
  Note:  These values currently only include a subset of arrays which are explicitly tracked.
  The "true" memory usage will be greater.
------------------------------------------------------------

------------------------------------------------------------
          Begin self-consistency iteration #    4

  Date     :  20220517, Time     :  115851.594
------------------------------------------------------------
  Pulay mixing of updated and previous charge densities.
  Renormalizing the density to the exact electron count on the 3D integration grid.
  | Formal number of electrons (from input files) :     120.0000000000
  | Integrated number of electrons on 3D grid     :     120.0000000000
  | Charge integration error                      :       0.0000000000
  | Normalization factor for density and gradient :       1.0000000000

  Evaluating partitioned Hartree potential by multipole expansion.
  | Original multipole sum: apparent total charge =   0.565748E-14
  | Sum of charges compensated after spline to logarithmic grids =   0.174884E-03
  | Analytical far-field extrapolation by fixed multipoles:
  | Hartree multipole sum: apparent total charge =   0.388644E-14
  Summing up the Hartree potential.
  Time summed over all CPUs for potential: real work        0.379 s, elapsed        0.396 s
  | RMS charge density error from multipole expansion :   0.226664E-01

  Integrating Hamiltonian matrix: batch-based integration.
  Time summed over all CPUs for integration: real work        0.659 s, elapsed        0.688 s

  Updating Kohn-Sham eigenvalues and eigenvectors using ELSI and the ELPA eigensolver.
  Starting ELPA eigensolver
  Finished transformation to standard eigenproblem
  | Time :     0.001 s
  Finished solving standard eigenproblem
  | Time :     0.003 s
  Finished back-transformation of eigenvectors
  | Time :     0.000 s

  Obtaining occupation numbers and chemical potential using ELSI.
  | Chemical potential (Fermi level):    -7.85446627 eV
  Highest occupied state (VBM) at     -7.98207700 eV
  | Occupation number:      2.00000000

  Lowest unoccupied state (CBM) at    -4.85072168 eV
  | Occupation number:      0.00000000

  Overall HOMO-LUMO gap:      3.13135532 eV.

  Total energy components:
  | Sum of eigenvalues            :        -884.96451840 Ha      -24081.10977897 eV
  | XC energy correction          :        -145.43428953 Ha       -3957.46837188 eV
  | XC potential correction       :         189.38159380 Ha        5153.33536604 eV
  | Free-atom electrostatic energy:        -779.63222679 Ha      -21214.87229167 eV
  | Hartree energy correction     :          -4.27871223 Ha        -116.42968374 eV
  | Entropy correction            :          -0.00000000 Ha          -0.00000000 eV
  | ---------------------------
  | Total energy                  :       -1624.92815315 Ha      -44216.54476022 eV
  | Total energy, T -> 0          :       -1624.92815315 Ha      -44216.54476022 eV  <-- do not rely on this value for anything but (periodic) metals
  | Electronic free energy        :       -1624.92815315 Ha      -44216.54476022 eV

  Derived energy quantities:
  | Kinetic energy                :        1629.81173258 Ha       44349.43371772 eV
  | Electrostatic energy          :       -3109.30559620 Ha      -84608.51010607 eV
  | Energy correction for multipole
  | error in Hartree potential    :           0.07927831 Ha           2.15727253 eV
  | Sum of eigenvalues per atom                           :       -2006.75914825 eV
  | Total energy (T->0) per atom                          :       -3684.71206335 eV  <-- do not rely on this value for anything but (periodic) metals
  | Electronic free energy per atom                       :       -3684.71206335 eV
  Evaluating new KS density.
  Integration grid: deviation in total charge (<rho> - N_e) =   2.842171E-14

  Self-consistency convergence accuracy:
  | Change of charge density      :  0.8910E-01
  | Change of sum of eigenvalues  : -0.3814E+01 eV
  | Change of total energy        :  0.6203E-01 eV


------------------------------------------------------------
  End self-consistency iteration #     4       :  max(cpu_time)    wall_clock(cpu1)
  | Time for this iteration                     :        0.083 s           0.079 s
  | Charge density update                       :        0.027 s           0.027 s
  | Density mixing                              :        0.004 s           0.001 s
  | Hartree multipole update                    :        0.001 s           0.001 s
  | Hartree multipole summation                 :        0.017 s           0.017 s
  | Integration                                 :        0.029 s           0.029 s
  | Solution of K.-S. eqns.                     :        0.004 s           0.004 s
  | Total energy evaluation                     :        0.000 s           0.000 s

  Partial memory accounting:
  | Current value for overall tracked memory usage:
  |   Minimum:        0.274 MB (on task 23)
  |   Maximum:        0.293 MB (on task  0)
  |   Average:        0.288 MB
  | Peak value for overall tracked memory usage:
  |   Minimum:        1.310 MB (on task  3 after allocating wave)
  |   Maximum:        1.410 MB (on task  5 after allocating wave)
  |   Average:        1.364 MB
  | Largest tracked array allocation so far:
  |   Minimum:        0.709 MB (gradient_basis_wave on task  3)
  |   Maximum:        0.767 MB (gradient_basis_wave on task  5)
  |   Average:        0.741 MB
  Note:  These values currently only include a subset of arrays which are explicitly tracked.
  The "true" memory usage will be greater.
------------------------------------------------------------

------------------------------------------------------------
          Begin self-consistency iteration #    5

  Date     :  20220517, Time     :  115851.679
------------------------------------------------------------
  Pulay mixing of updated and previous charge densities.
  Renormalizing the density to the exact electron count on the 3D integration grid.
  | Formal number of electrons (from input files) :     120.0000000000
  | Integrated number of electrons on 3D grid     :     120.0000000000
  | Charge integration error                      :       0.0000000000
  | Normalization factor for density and gradient :       1.0000000000

  Evaluating partitioned Hartree potential by multipole expansion.
  | Original multipole sum: apparent total charge =   0.486543E-13
  | Sum of charges compensated after spline to logarithmic grids =   0.175272E-03
  | Analytical far-field extrapolation by fixed multipoles:
  | Hartree multipole sum: apparent total charge =   0.509665E-13
  Summing up the Hartree potential.
  Time summed over all CPUs for potential: real work        0.379 s, elapsed        0.395 s
  | RMS charge density error from multipole expansion :   0.226818E-01

  Integrating Hamiltonian matrix: batch-based integration.
  Time summed over all CPUs for integration: real work        0.660 s, elapsed        0.691 s

  Updating Kohn-Sham eigenvalues and eigenvectors using ELSI and the ELPA eigensolver.
  Starting ELPA eigensolver
  Finished transformation to standard eigenproblem
  | Time :     0.000 s
  Finished solving standard eigenproblem
  | Time :     0.003 s
  Finished back-transformation of eigenvectors
  | Time :     0.000 s

  Obtaining occupation numbers and chemical potential using ELSI.
  | Chemical potential (Fermi level):    -7.84749128 eV
  Highest occupied state (VBM) at     -8.06548150 eV
  | Occupation number:      2.00000000

  Lowest unoccupied state (CBM) at    -4.81569677 eV
  | Occupation number:      0.00000000

  Overall HOMO-LUMO gap:      3.24978473 eV.

  Total energy components:
  | Sum of eigenvalues            :        -884.93649031 Ha      -24080.34709595 eV
  | XC energy correction          :        -145.42523025 Ha       -3957.22185635 eV
  | XC potential correction       :         189.36972737 Ha        5153.01246412 eV
  | Free-atom electrostatic energy:        -779.63222679 Ha      -21214.87229167 eV
  | Hartree energy correction     :          -4.30380576 Ha        -117.11251347 eV
  | Entropy correction            :          -0.00000000 Ha          -0.00000000 eV
[...]
   Total forces(   7)            :  0.773851E+00  0.163430E+00 -0.148131E+00
  atom #    8
   Hellmann-Feynman              :  0.118418E+01  0.212331E+00 -0.227413E+01
   Ionic forces                  :  0.000000E+00  0.000000E+00  0.000000E+00
   Multipole                     :  0.110733E+00  0.212777E-01 -0.134851E+00
   Hartree pot. SCF incomplete   :  0.394842E-05  0.961376E-06  0.538018E-05
   Pulay + GGA                   : -0.325212E+01 -0.694043E+00  0.466780E+00
   ----------------------------------------------------------------
   Total forces(   8)            : -0.195721E+01 -0.460433E+00 -0.194219E+01
  atom #    9
   Hellmann-Feynman              :  0.237474E+00  0.269655E+01  0.936975E+00
   Ionic forces                  :  0.000000E+00  0.000000E+00  0.000000E+00
   Multipole                     :  0.123091E+00  0.565514E+00  0.142115E+00
   Hartree pot. SCF incomplete   :  0.161438E-05  0.284691E-05  0.150414E-05
   Pulay + GGA                   : -0.100976E+01 -0.611814E+01 -0.212919E+01
   ----------------------------------------------------------------
   Total forces(   9)            : -0.649193E+00 -0.285607E+01 -0.105010E+01
  atom #   10
   Hellmann-Feynman              :  0.132226E+01 -0.232270E+01  0.103176E+01
   Ionic forces                  :  0.000000E+00  0.000000E+00  0.000000E+00
   Multipole                     :  0.344515E+00 -0.458749E+00  0.161718E+00
   Hartree pot. SCF incomplete   :  0.263168E-05 -0.187168E-05  0.159859E-05
   Pulay + GGA                   : -0.342812E+01  0.507369E+01 -0.234144E+01
   ----------------------------------------------------------------
   Total forces(  10)            : -0.176134E+01  0.229224E+01 -0.114797E+01
  atom #   11
   Hellmann-Feynman              : -0.487397E+01 -0.908762E+00  0.761552E+01
   Ionic forces                  :  0.000000E+00  0.000000E+00  0.000000E+00
   Multipole                     : -0.577766E+00 -0.101236E+00  0.123766E+01
   Hartree pot. SCF incomplete   : -0.326904E-05 -0.725605E-06 -0.533793E-06
   Pulay + GGA                   :  0.273274E+01  0.482865E+00 -0.568165E+01
   ----------------------------------------------------------------
   Total forces(  11)            : -0.271900E+01 -0.527135E+00  0.317153E+01
  atom #   12
   Hellmann-Feynman              :  0.167350E+01  0.325280E+00 -0.193009E+01
   Ionic forces                  :  0.000000E+00  0.000000E+00  0.000000E+00
   Multipole                     :  0.547451E+00  0.109580E+00 -0.457356E+00
   Hartree pot. SCF incomplete   :  0.346203E-05  0.750586E-06  0.247211E-06
   Pulay + GGA                   : -0.528379E+01 -0.104452E+01  0.511259E+01
   ----------------------------------------------------------------
   Total forces(  12)            : -0.306283E+01 -0.609655E+00  0.272514E+01


  Self-consistency convergence accuracy:
  | Change of charge density      :  0.3966E-06
  | Change of sum of eigenvalues  : -0.6272E-04 eV
  | Change of total energy        : -0.7944E-08 eV
  | Change of forces              :  0.1851E-05 eV/A

  Writing Kohn-Sham eigenvalues.

  State    Occupation    Eigenvalue [Ha]    Eigenvalue [eV]
      1       2.00000         -55.627330        -1513.69667
      2       2.00000         -55.595307        -1512.82528
      3       2.00000         -55.541767        -1511.36839
      4       2.00000         -24.312644         -661.58072
      5       2.00000         -24.312644         -661.58069
      6       2.00000         -24.287821         -660.90523
      7       2.00000         -24.265051         -660.28564
      8       2.00000         -24.235694         -659.48679
      9       2.00000         -24.225332         -659.20482
     10       2.00000         -24.201877         -658.56657
     11       2.00000         -24.149456         -657.14013
     12       2.00000         -24.149453         -657.14004
     13       2.00000          -4.086938         -111.21124
     14       2.00000          -4.086819         -111.20800
     15       2.00000          -3.997754         -108.78441
     16       2.00000          -2.681712          -72.97310
     17       2.00000          -2.679952          -72.92521
     18       2.00000          -2.678766          -72.89294
     19       2.00000          -2.676624          -72.83466
     20       2.00000          -2.676123          -72.82101
     21       2.00000          -2.675311          -72.79890
     22       2.00000          -2.591511          -70.51859
     23       2.00000          -2.589128          -70.45376
     24       2.00000          -2.587174          -70.40058
     25       2.00000          -1.220579          -33.21364
     26       2.00000          -1.196648          -32.56245
     27       2.00000          -1.184386          -32.22878
     28       2.00000          -1.154330          -31.41092
     29       2.00000          -1.095216          -29.80235
     30       2.00000          -1.085122          -29.52767
     31       2.00000          -1.038283          -28.25313
     32       2.00000          -0.994906          -27.07278
     33       2.00000          -0.992012          -26.99401
     34       2.00000          -0.567517          -15.44293
     35       2.00000          -0.557856          -15.18004
     36       2.00000          -0.535128          -14.56157
     37       2.00000          -0.532887          -14.50060
     38       2.00000          -0.515607          -14.03038
     39       2.00000          -0.513205          -13.96502
     40       2.00000          -0.492632          -13.40520
     41       2.00000          -0.488361          -13.28899
     42       2.00000          -0.483526          -13.15742
     43       2.00000          -0.477069          -12.98171
     44       2.00000          -0.476903          -12.97718
     45       2.00000          -0.453370          -12.33682
     46       2.00000          -0.452660          -12.31751
     47       2.00000          -0.434169          -11.81434
     48       2.00000          -0.417689          -11.36591
     49       2.00000          -0.400542          -10.89931
     50       2.00000          -0.398450          -10.84237
     51       2.00000          -0.387042          -10.53194
     52       2.00000          -0.385621          -10.49329
     53       2.00000          -0.360737           -9.81615
     54       2.00000          -0.346917           -9.44009
     55       2.00000          -0.346718           -9.43467
     56       2.00000          -0.339383           -9.23508
     57       2.00000          -0.308220           -8.38710
     58       2.00000          -0.303316           -8.25365
     59       2.00000          -0.297808           -8.10377
     60       2.00000          -0.296146           -8.05854
     61       0.00000          -0.176378           -4.79948
     62       0.00000          -0.110875           -3.01705
     63       0.00000          -0.063574           -1.72995
     64       0.00000          -0.059824           -1.62789
     65       0.00000          -0.041275           -1.12315
     66       0.00000          -0.022177           -0.60347
     67       0.00000           0.009538            0.25954
     68       0.00000           0.033650            0.91567
     69       0.00000           0.066839            1.81879
     70       0.00000           0.074007            2.01383
     71       0.00000           0.078263            2.12966
     72       0.00000           0.092856            2.52675
     73       0.00000           0.117203            3.18926
     74       0.00000           0.148523            4.04152
     75       0.00000           0.150563            4.09702
     76       0.00000           0.156436            4.25685
     77       0.00000           0.171875            4.67694
     78       0.00000           0.178289            4.85150
     79       0.00000           0.194434            5.29081
     80       0.00000           0.198929            5.41312
     81       0.00000           0.201446            5.48163
     82       0.00000           0.225555            6.13767
     83       0.00000           0.238810            6.49834
     84       0.00000           0.246560            6.70924
     85       0.00000           0.247901            6.74574
     86       0.00000           0.252403            6.86824
     87       0.00000           0.258521            7.03470
     88       0.00000           0.278778            7.58594
     89       0.00000           0.286672            7.80073
     90       0.00000           0.294864            8.02365
     91       0.00000           0.316352            8.60839
     92       0.00000           0.331892            9.03124
     93       0.00000           0.337300            9.17840
     94       0.00000           0.361396            9.83409
     95       0.00000           0.364839            9.92777
     96       0.00000           0.368004           10.01391

  Highest occupied state (VBM) at     -8.05853576 eV
  | Occupation number:      2.00000000

  Lowest unoccupied state (CBM) at    -4.79948403 eV
  | Occupation number:      0.00000000

  Overall HOMO-LUMO gap:      3.25905172 eV.
  | Chemical Potential                          :    -7.84207569 eV

  Self-consistency cycle converged.


------------------------------------------------------------
  End self-consistency iteration #    14       :  max(cpu_time)    wall_clock(cpu1)
  | Time for this iteration                     :        0.265 s           0.263 s
  | Charge density & force component update     :        0.144 s           0.144 s
  | Density mixing                              :        0.005 s           0.002 s
  | Hartree multipole update                    :        0.001 s           0.002 s
  | Hartree multipole summation                 :        0.049 s           0.048 s
  | Hartree pot. SCF incomplete forces          :        0.032 s           0.032 s
  | Integration                                 :        0.029 s           0.029 s
  | Solution of K.-S. eqns.                     :        0.004 s           0.004 s
  | Total energy evaluation                     :        0.000 s           0.000 s

  Partial memory accounting:
  | Current value for overall tracked memory usage:
  |   Minimum:        0.274 MB (on task 23)
  |   Maximum:        0.293 MB (on task  0)
  |   Average:        0.289 MB
  | Peak value for overall tracked memory usage:
  |   Minimum:        2.916 MB (on task  3 after allocating hessian_basis_wave)
  |   Maximum:        3.119 MB (on task  5 after allocating hessian_basis_wave)
  |   Average:        3.026 MB
  | Largest tracked array allocation so far:
  |   Minimum:        1.418 MB (hessian_basis_wave on task  3)
  |   Maximum:        1.534 MB (hessian_basis_wave on task  5)
  |   Average:        1.481 MB
  Note:  These values currently only include a subset of arrays which are explicitly tracked.
  The "true" memory usage will be greater.
------------------------------------------------------------
  Removing unitary transformations (pure translations, rotations) from forces on atoms.
  Atomic forces before filtering:
  | Net force on center of mass :  -0.123327E-02  0.215927E-02  0.255789E-02 eV/A
  | Net torque on center of mass:   0.792719E-02  0.152232E-01 -0.908183E-02 eV
  Atomic forces after filtering:
  | Net force on center of mass :  -0.249769E-14  0.107044E-14  0.356812E-15 eV/A
  | Net torque on center of mass:  -0.944085E-15  0.830794E-14  0.188817E-15 eV

  Energy and forces in a compact form:
  | Total energy uncorrected      :         -0.442165407379953E+05 eV
  | Total energy corrected        :         -0.442165407379953E+05 eV  <-- do not rely on this value for anything but (periodic) metals
  | Electronic free energy        :         -0.442165407379953E+05 eV
  Total atomic forces (unitary forces cleaned) [eV/Ang]:
  |    1          0.738164945798101E+01          0.157896551091474E+01         -0.900913280635827E+00
  |    2          0.248273593069173E+01          0.581438789896222E+00          0.240622679306725E+01
  |    3          0.570400829374692E+01          0.155886720608714E+01          0.168628699181159E+02
  |    4         -0.211734133005887E+01         -0.833212208932046E+00         -0.195904762886356E+02
  |    5         -0.199775815617058E+01         -0.626188866797301E+00         -0.188355082031645E+00
  |    6         -0.207694461103341E+01         -0.262408995081300E+00         -0.196935744755071E+00
  |    7          0.773701532673116E+00          0.163311950569620E+00         -0.148478587286757E+00
  |    8         -0.195732394628541E+01         -0.460193020261424E+00         -0.194203832946524E+01
  |    9         -0.650010489404268E+00         -0.285569180494649E+01         -0.105036311281979E+01
  |   10         -0.176165711348174E+01          0.229273447675285E+01         -0.114764304885981E+01
  |   11         -0.271880838187881E+01         -0.527776452852663E+00          0.317078054227151E+01
  |   12         -0.306225118677969E+01         -0.609846585349345E+00          0.272532622103508E+01

  ------------------------------------ 
  Start decomposition of the XC Energy 
  ------------------------------------ 
  X and C from original XC functional choice 
  Hartree-Fock Energy :          0.000000000 Ha              0.000000000 eV
  X Energy            :       -140.469193643 Ha          -3822.361238627 eV
  C Energy            :         -4.957770139 Ha           -134.907789526 eV
  Total XC Energy     :       -145.426963783 Ha          -3957.269028154 eV
  ------------------------------------ 
  LDA X and C from self-consistent density 
  X Energy LDA        :       -133.054442570 Ha          -3620.595596213 eV
  C Energy LDA        :         -8.836915444 Ha           -240.464703951 eV
  ------------------------------------ 
  End decomposition of the XC Energy 
  ------------------------------------ 

------------------------------------------------------------

------------------------------------------------------------------------------
  Final output of selected total energy values:

  The following output summarizes some interesting total energy values
  at the end of a run (AFTER all relaxation, molecular dynamics, etc.).

  | Total energy of the DFT / Hartree-Fock s.c.f. calculation      :         -44216.540737995 eV
  | Final zero-broadening corrected energy (caution - metals only) :         -44216.540737995 eV
  | For reference only, the value of 1 Hartree used in FHI-aims is :             27.211384500 eV

  Before relying on these values, please be sure to understand exactly which
  total energy value is referred to by a given number. Different objects may
  all carry the same name 'total energy'. Definitions:

  Total energy of the DFT / Hartree-Fock s.c.f. calculation:
  | Note that this energy does not include ANY quantities calculated after the
  | s.c.f. cycle, in particular not ANY RPA, MP2, etc. many-body perturbation terms.

  Final zero-broadening corrected energy:
  | For metallic systems only, a broadening of the occupation numbers at the Fermi
  | level can be extrapolated back to zero broadening by an electron-gas inspired
  | formula. For all systems that are not real metals, this value can be
  | meaningless and should be avoided.

------------------------------------------------------------------------------
  Methods described in the following list of references were used in this FHI-aims run.
  If you publish the results, please make sure to cite these reference if they apply.
  FHI-aims is an academic code, and for our developers (often, Ph.D. students
  and postdocs), scientific credit in the community is essential.
  Thank you for helping us!

  For any use of FHI-aims, please cite:

    Volker Blum, Ralf Gehrke, Felix Hanke, Paula Havu, Ville Havu,
    Xinguo Ren, Karsten Reuter, and Matthias Scheffler
    'Ab initio molecular simulations with numeric atom-centered orbitals'
    Computer Physics Communications 180, 2175-2196 (2009)
    http://dx.doi.org/10.1016/j.cpc.2009.06.022


  The ELSI infrastructure was used in your run to solve the Kohn-Sham electronic structure.
  Please check out http://elsi-interchange.org to learn more.
  If scalability is important for your project, please acknowledge ELSI by citing:

    V. W-z. Yu, F. Corsetti, A. Garcia, W. P. Huhn, M. Jacquelin, W. Jia,
    B. Lange, L. Lin, J. Lu, W. Mi, A. Seifitokaldani, A. Vazquez-Mayagoitia,
    C. Yang, H. Yang, and V. Blum
    'ELSI: A unified software interface for Kohn-Sham electronic structure solvers'
    Computer Physics Communications 222, 267-285 (2018).
    http://dx.doi.org/10.1016/j.cpc.2017.09.007


  For the real-space grid partitioning and parallelization used in this calculation, please cite:

    Ville Havu, Volker Blum, Paula Havu, and Matthias Scheffler,
    'Efficient O(N) integration for all-electron electronic structure calculation'
    'using numerically tabulated basis functions'
    Journal of Computational Physics 228, 8367-8379 (2009).
    http://dx.doi.org/10.1016/j.jcp.2009.08.008

  Of course, there are many other important community references, e.g., those cited in the
  above references. Our list is limited to references that describe implementations in the
  FHI-aims code. The reason is purely practical (length of this list) - please credit others as well.

------------------------------------------------------------
          Leaving FHI-aims.
          Date     :  20220517, Time     :  115852.925

          Computational steps:
          | Number of self-consistency cycles          :           14
          | Number of SCF (re)initializations          :            1

          Detailed time accounting                     :  max(cpu_time)    wall_clock(cpu1)
          | Total time                                  :        1.896 s           1.959 s
          | Preparation time                            :        0.184 s           0.184 s
          | Boundary condition initalization            :        0.000 s           0.000 s
          | Grid partitioning                           :        0.036 s           0.036 s
          | Preloading free-atom quantities on grid     :        0.015 s           0.015 s
          | Free-atom superposition energy              :        0.005 s           0.004 s
          | Total time for integrations                 :        0.452 s           0.452 s
          | Total time for solution of K.-S. equations  :        0.067 s           0.067 s
          | Total time for density & force components   :        0.640 s           0.641 s
          | Total time for mixing                       :        0.060 s           0.030 s
          | Total time for Hartree multipole update     :        0.018 s           0.017 s
          | Total time for Hartree multipole sum        :        0.299 s           0.299 s
          | Total time for total energy evaluation      :        0.002 s           0.002 s
          | Total time NSC force correction             :        0.064 s           0.064 s
          | Total time for scaled ZORA corrections      :        0.000 s           0.000 s

          Partial memory accounting:
          | Residual value for overall tracked memory usage across tasks:     0.000000 MB (should be 0.000000 MB)
          | Peak values for overall tracked memory usage:
          |   Minimum:        2.916 MB (on task  3 after allocating hessian_basis_wave)
          |   Maximum:        3.119 MB (on task  5 after allocating hessian_basis_wave)
          |   Average:        3.026 MB
          | Largest tracked array allocation:
          |   Minimum:        1.418 MB (hessian_basis_wave on task  3)
          |   Maximum:        1.534 MB (hessian_basis_wave on task  5)
          |   Average:        1.481 MB
          Note:  These values currently only include a subset of arrays which are explicitly tracked.
          The "true" memory usage will be greater.

          Have a nice day.
------------------------------------------------------------
