------------------------------------------------------------
          Invoking FHI-aims ...

          When using FHI-aims, please cite the following reference:

            Volker Blum, Ralf Gehrke, Felix Hanke, Paula Havu,
            Ville Havu, Xinguo Ren, Karsten Reuter, and Matthias Scheffler,
            'Ab Initio Molecular Simulations with Numeric Atom-Centered Orbitals',
            Computer Physics Communications 180, 2175-2196 (2009)

          In addition, many other developments in FHI-aims are likely important for
          your particular application. A partial list of references is given at the end of
          this file. Thank you for giving credit to the authors of these developments.

          For any questions about FHI-aims, please visit our slack channel at

            https://fhi-aims.slack.com

          and our main development and support site at

            https://aims-git.rz-berlin.mpg.de .

          The latter site, in particular, has a wiki to collect information, as well
          as an issue tracker to log discussions, suggest improvements, and report issues
          or bugs. https://aims-git.rz-berlin.mpg.de is also the main development site
          of the project and all new and updated code versions can be obtained there.
          Please send an email to aims-coordinators@fhi-berlin.mpg.de and we will add
          you to these sites. They are for you and everyone is welcome there.

------------------------------------------------------------



  Date     :  20220517, Time     :  114929.087
  Time zero on CPU 1             :   0.387010000000000E-01  s.
  Internal wall clock time zero  :           422020169.087  s.

  FHI-aims created a unique identifier for this run for later identification
  aims_uuid : B5725A84-E23F-4001-A74E-FDD3805684AD

  Build configuration of the current instance of FHI-aims
  -------------------------------------------------------
  FHI-aims version      : 210914
  Commit number         : GITDIR-NOTFOUND
  CMake host system     : Linux-3.10.0-693.17.1.el7.x86_64
  CMake version         : 3.21.1
  Fortran compiler      : /shared/ucl/apps/intel/2018.Update3/impi/2018.3.222/intel64/bin/mpiifort (Intel) version 18.0.3.20180410
  Fortran compiler flags: -O3 -ip -fp-model precise
  C compiler            : /shared/ucl/apps/intel/2018.Update3/compilers_and_libraries_2018.3.222/linux/bin/intel64/icc (Intel) version 18.0.3.20180410
  C compiler flags      : -O3 -ip -fp-model precise -std=gnu99
  ELPA2 kernel          : AVX2
  Using MPI
  Using ScaLAPACK
  Using LibXC
  Using i-PI
  Using RLSY
  Linking against: /shared/ucl/apps/intel/2019.Update5/compilers_and_libraries_2019.5.281/linux/mkl/lib/intel64/libmkl_intel_lp64.so
                   /shared/ucl/apps/intel/2019.Update5/compilers_and_libraries_2019.5.281/linux/mkl/lib/intel64/libmkl_sequential.so
                   /shared/ucl/apps/intel/2019.Update5/compilers_and_libraries_2019.5.281/linux/mkl/lib/intel64/libmkl_core.so
                   /shared/ucl/apps/intel/2019.Update5/compilers_and_libraries_2019.5.281/linux/mkl/lib/intel64/libmkl_blacs_intelmpi_lp64.so
                   /shared/ucl/apps/intel/2019.Update5/compilers_and_libraries_2019.5.281/linux/mkl/lib/intel64/libmkl_scalapack_lp64.so

  Using       24 parallel tasks.
  Task        0 on host node-k98e-003 reporting.
  Task        1 on host node-k98e-003 reporting.
  Task        2 on host node-k98e-003 reporting.
  Task        3 on host node-k98e-003 reporting.
  Task        4 on host node-k98e-003 reporting.
  Task        5 on host node-k98e-003 reporting.
  Task        6 on host node-k98e-003 reporting.
  Task        7 on host node-k98e-003 reporting.
  Task        8 on host node-k98e-003 reporting.
  Task        9 on host node-k98e-003 reporting.
  Task       10 on host node-k98e-003 reporting.
  Task       11 on host node-k98e-003 reporting.
  Task       12 on host node-k98e-003 reporting.
  Task       13 on host node-k98e-003 reporting.
  Task       14 on host node-k98e-003 reporting.
  Task       15 on host node-k98e-003 reporting.
  Task       16 on host node-k98e-003 reporting.
  Task       17 on host node-k98e-003 reporting.
  Task       18 on host node-k98e-003 reporting.
  Task       19 on host node-k98e-003 reporting.
  Task       20 on host node-k98e-003 reporting.
  Task       21 on host node-k98e-003 reporting.
  Task       22 on host node-k98e-003 reporting.
  Task       23 on host node-k98e-003 reporting.

  Performing system and environment tests:
  | Environment variable OMP_NUM_THREADS correctly set to 1.
  | Checking for ScaLAPACK...
  | Testing pdtran()...
  | All pdtran() tests passed.

  Obtaining array dimensions for all initial allocations:
  
  -----------------------------------------------------------------------
  Parsing control.in (first pass over file, find array dimensions only).
  The contents of control.in will be repeated verbatim below
  unless switched off by setting 'verbatim_writeout .false.' .
  in the first line of control.in .
  -----------------------------------------------------------------------
  
  #########################################################################################  Physical model
  #########################################################################################
  xc                 pbesol
  spin               none
  relativistic       atomic_zora scalar
  charge             0.0
  #  SCF convergence
  occupation_type    gaussian 0.01
  mixer              pulay
  n_max_pulay        10
  charge_mix_param   0.5
  sc_accuracy_rho    1E-5
  sc_accuracy_eev    1E-3
  sc_accuracy_etot   1E-6
  sc_accuracy_forces 1E-4
  sc_iter_limit      1500
  #  Relaxation
  #relax_geometry   bfgs 1.e-3
  
  ################################################################################
  #
  #  FHI-aims code project
  #  VB, Fritz-Haber Institut, 2009
  #
  #  Suggested "light" defaults for Al atom (to be pasted into control.in file)
  #  Be sure to double-check any results obtained with these settings for post-processing,
  #  e.g., with the "tight" defaults and larger basis sets.
  #
  ################################################################################
    species        Al
  #     global species definitions
      nucleus             13
      mass                26.9815386
  #
      l_hartree           4
  #
      cut_pot             3.5          1.5  1.0
      basis_dep_cutoff    1e-4
  #
      radial_base         41 5.0
      radial_multiplier   1
      angular_grids       specified
        division   0.6594  110
        division   0.8170  194
        division   0.9059  302
  #      division   1.0363  434
  #      division   1.1443  590
  #      division   1.2621  770
  #      division   2.8177  974
  #      outer_grid   974
        outer_grid   302
  ################################################################################
  #
  #  Definition of "minimal" basis
  #
  ################################################################################
  #     valence basis states
      valence      3  s   2.
      valence      3  p   1.
  #     ion occupancy
      ion_occ      3  s   1.
      ion_occ      2  p   6.
  ################################################################################
  #
  #  Suggested additional basis functions. For production calculations,
  #  uncomment them one after another (the most important basis functions are
  #  listed first).
  #
  #  Constructed for dimers: 2.0 A, 2.5 A, 3.0 A, 3.75 A, 4.5 A
  #
  ################################################################################
  #  "First tier" - improvements: -199.47 meV to -10.63 meV
       ionic 3 d auto
       ionic 3 p auto
  #     hydro 4 f 4.7
       ionic 3 s auto
  #  "Second tier" - improvements: -5.35 meV to -1.57 meV
  #     hydro 5 g 7
  #     hydro 3 d 6
  #     hydro 2 s 11.6
  #     hydro 2 p 0.9
  #  "Third tier" - improvements: -0.63 meV to -0.20 meV
  #     hydro 5 f 7.6
  #     hydro 4 p 7.2
  #     hydro 4 s 3.7
  #     hydro 4 d 7.6
  #  "Fourth tier" - improvements: -0.17 meV to -0.08 meV
  #     hydro 4 d 13.6
  #     hydro 5 g 11.2
  #     hydro 4 d 0.9
  #     hydro 1 s 0.4
  #     hydro 4 p 0.1
  #     hydro 5 f 9.8
  #  Further basis functions that fell out of the optimization - noise level...
  #     hydro 4 p 5
  
  ################################################################################
  #
  #  FHI-aims code project
  #  VB, Fritz-Haber Institut, 2009
  #
  #  Suggested "light" defaults for F atom (to be pasted into control.in file)
  #  Be sure to double-check any results obtained with these settings for post-processing,
  #  e.g., with the "tight" defaults and larger basis sets.
  #
  ################################################################################
    species        F
  #     global species definitions
      nucleus             9
      mass                18.9984032
  #
      l_hartree           4
  #
      cut_pot             3.5  1.5  1.0
      basis_dep_cutoff    1e-4
  #
      radial_base         37 5.0
      radial_multiplier   1
      angular_grids specified
        division   0.4014  110
        division   0.5291  194
        division   0.6019  302
  #      division   0.6814  434
  #      division   0.7989  590
  #      division   0.8965  770
  #      division   1.3427  974
  #      outer_grid   974
        outer_grid   302
  ################################################################################
  #
  #  Definition of "minimal" basis
  #
  ################################################################################
  #     valence basis states
      valence      2  s   2.
      valence      2  p   5.
  #     ion occupancy
      ion_occ      2  s   1.
      ion_occ      2  p   4.
  ################################################################################
  #
  #  Suggested additional basis functions. For production calculations,
  #  uncomment them one after another (the most important basis functions are
  #  listed first).
  #
  #  Constructed for dimers: 1.2 A, 1.418 A, 1.75 A, 2.25 A, 3.25 A
  #
  ################################################################################
  #  "First tier" - improvements: -149.44 meV to -45.88 meV
       hydro 2 p 1.7
       hydro 3 d 7.4
       hydro 3 s 6.8
  #  "Second tier" - improvements: -12.96 meV to -1.56 meV
  #     hydro 4 f 11.2
  #     ionic 2 p auto
  #     hydro 1 s 0.75
  #     hydro 4 d 8.8
  #     hydro 5 g 16.8
  #  "Third tier" - improvements: -0.58 meV to -0.05 meV
  #     hydro 3 p 6.2
  #     hydro 3 s 3.2
  #     hydro 4 f 9.6
  #     hydro 3 s 19.6
  #     hydro 4 d 8.6
  #     hydro 5 g 14.4
  # Further basis functions: -0.05 meV and below
  #     hydro 3 p 4.2
  
  -----------------------------------------------------------------------
  Completed first pass over input file control.in .
  -----------------------------------------------------------------------
  
  
  -----------------------------------------------------------------------
  Parsing geometry.in (first pass over file, find array dimensions only).
  The contents of geometry.in will be repeated verbatim below
  unless switched off by setting 'verbatim_writeout .false.' .
  in the first line of geometry.in .
  -----------------------------------------------------------------------
  
  atom -0.354375238 1.038262360 -1.668244136 Al
  atom -0.175311981 1.125810691 0.893090601 Al
  atom -3.126020103 0.435100278 -1.886278209 Al
  atom -3.575918055 0.302958336 -3.716662761 F
  atom -1.096152158 -0.300857304 -1.828269738 F
  atom -1.581511093 1.944942389 -1.871102761 F
  atom -1.944404177 0.736449855 0.524566309 F
  atom 0.152236416 1.176680297 -0.151380175 F
  atom -0.336901981 2.551834604 1.935058771 F
  atom 0.257981208 -0.200747271 1.987555758 F
  atom -4.374757767 0.192198726 -0.471966713 F
  atom 0.532841619 1.203848703 -3.039720044 F
  
  -----------------------------------------------------------------------
  Completed first pass over input file geometry.in .
  -----------------------------------------------------------------------
  

  Basic array size parameters:
  | Number of species                 :        2
  | Number of atoms                   :       12
  | Max. basis fn. angular momentum   :        2
  | Max. atomic/ionic basis occupied n:        3
  | Max. number of basis fn. types    :        3
  | Max. radial fns per species/type  :        5
  | Max. logarithmic grid size        :     1340
  | Max. radial integration grid size :       41
  | Max. angular integration grid size:      302
  | Max. angular grid division number :        8
  | Radial grid for Hartree potential :     1340
  | Number of spin channels           :        1

------------------------------------------------------------
          Reading file control.in.
------------------------------------------------------------
  XC: Using PBEsol gradient-corrected functionals.
  Spin treatment: No spin polarisation.
  Scalar relativistic treatment of kinetic energy: on-site free-atom approximation to ZORA.
  Charge =   0.000000E+00: Neutral system requested explicitly.
  Occupation type: Gaussian broadening, width =   0.100000E-01 eV.
  Using pulay charge density mixing.
  Pulay mixing - number of memorized iterations:   10
  Charge density mixing - mixing parameter:     0.5000
  Convergence accuracy of self-consistent charge density:  0.1000E-04
  Convergence accuracy of sum of eigenvalues:  0.1000E-02
  Convergence accuracy of total energy:  0.1000E-05
  Convergence accuracy of forces:  0.1000E-03
  Maximum number of s.-c. iterations  :  1500
 
  Reading configuration options for species Al                  .
  | Found nuclear charge :  13.0000
  | Found atomic mass :    26.9815386000000      amu
  | Found l_max for Hartree potential  :   4
  | Found cutoff potl. onset [A], width [A], scale factor :    3.50000    1.50000    1.00000
  | Threshold for basis-dependent cutoff potential is   0.100000E-03
  | Found data for basic radial integration grid :    41 points, outermost radius =    5.000 A
  | Found multiplier for basic radial grid :   1
  | Found angular grid specification: user-specified.
  | Specified grid contains     4 separate shells.
  | Check grid settings after all constraints further below.
  | Found free-atom valence shell :  3 s   2.000
  | Found free-atom valence shell :  3 p   1.000
  | Found free-ion valence shell :  3 s   1.000
  | Found free-ion valence shell :  2 p   6.000
  | Found ionic basis function :  3 d , default cutoff radius.
  | Found ionic basis function :  3 p , default cutoff radius.
  | Found ionic basis function :  3 s , default cutoff radius.
  Species Al                  : Missing cutoff potential type.
  Defaulting to exp(1/x)/(1-x)^2 type cutoff potential.
  Species Al: No 'logarithmic' tag. Using default grid for free atom:
  | Default logarithmic grid data [bohr] : 0.1000E-03 0.1000E+03 0.1012E+01
  | Will include ionic basis functions of  2.0-fold positive Al                   ion.
  Species Al: On-site basis accuracy parameter (for Gram-Schmidt orthonormalisation) not specified.
  Using default value basis_acc =  0.1000000E-03.
  Species Al                  : Using default innermost maximum threshold i_radial=  2 for radial functions.
  Species Al                  : Default cutoff onset for free atom density etc. : 0.35000000E+01 AA.
  Species Al                  : Basic radial grid will be enhanced according to radial_multiplier =   1, to contain    41 grid points.
 
  Reading configuration options for species F                   .
  | Found nuclear charge :   9.0000
  | Found atomic mass :    18.9984032000000      amu
  | Found l_max for Hartree potential  :   4
  | Found cutoff potl. onset [A], width [A], scale factor :    3.50000    1.50000    1.00000
  | Threshold for basis-dependent cutoff potential is   0.100000E-03
  | Found data for basic radial integration grid :    37 points, outermost radius =    5.000 A
  | Found multiplier for basic radial grid :   1
  | Found angular grid specification: user-specified.
  | Specified grid contains     4 separate shells.
  | Check grid settings after all constraints further below.
  | Found free-atom valence shell :  2 s   2.000
  | Found free-atom valence shell :  2 p   5.000
  | Found free-ion valence shell :  2 s   1.000
  | Found free-ion valence shell :  2 p   4.000
  | Found hydrogenic basis function :  2 p   1.700
  | Found hydrogenic basis function :  3 d   7.400
  | Found hydrogenic basis function :  3 s   6.800
  Species F                   : Missing cutoff potential type.
  Defaulting to exp(1/x)/(1-x)^2 type cutoff potential.
  Species F : No 'logarithmic' tag. Using default grid for free atom:
  | Default logarithmic grid data [bohr] : 0.1000E-03 0.1000E+03 0.1012E+01
  Species F : On-site basis accuracy parameter (for Gram-Schmidt orthonormalisation) not specified.
  Using default value basis_acc =  0.1000000E-03.
  Species F                   : Using default innermost maximum threshold i_radial=  2 for radial functions.
  Species F                   : Default cutoff onset for free atom density etc. : 0.35000000E+01 AA.
  Species F                   : Basic radial grid will be enhanced according to radial_multiplier =   1, to contain    37 grid points.
 
  Finished reading input file 'control.in'.
 
------------------------------------------------------------


------------------------------------------------------------
          Reading geometry description geometry.in.
------------------------------------------------------------
  | The smallest distance between any two atoms is         1.09580786 AA.
  | The first atom of this pair is atom number                      2 .
  | The second atom of this pair is atom number                     8 .
  Input structure read successfully.
  The structure contains       12 atoms,  and a total of        120.000 electrons.

  Input geometry:
  | No unit cell requested.
  | Atomic structure:
  |       Atom                x [A]            y [A]            z [A]
  |    1: Species Al           -0.35437524        1.03826236       -1.66824414
  |    2: Species Al           -0.17531198        1.12581069        0.89309060
  |    3: Species Al           -3.12602010        0.43510028       -1.88627821
  |    4: Species F            -3.57591805        0.30295834       -3.71666276
  |    5: Species F            -1.09615216       -0.30085730       -1.82826974
  |    6: Species F            -1.58151109        1.94494239       -1.87110276
  |    7: Species F            -1.94440418        0.73644986        0.52456631
  |    8: Species F             0.15223642        1.17668030       -0.15138018
  |    9: Species F            -0.33690198        2.55183460        1.93505877
  |   10: Species F             0.25798121       -0.20074727        1.98755576
  |   11: Species F            -4.37475777        0.19219873       -0.47196671
  |   12: Species F             0.53284162        1.20384870       -3.03972004

 
  Finished reading input file 'control.in'.
 

------------------------------------------------------------
          Reading geometry description geometry.in.
------------------------------------------------------------
 
  Consistency checks for stacksize environment parameter are next.
 
  | Maximum stacksize for task 0: unlimited
  | Maximum stacksize for task 1: unlimited
  | Maximum stacksize for task 2: unlimited
  | Maximum stacksize for task 3: unlimited
  | Maximum stacksize for task 4: unlimited
  | Maximum stacksize for task 5: unlimited
  | Maximum stacksize for task 6: unlimited
  | Maximum stacksize for task 7: unlimited
  | Maximum stacksize for task 8: unlimited
  | Maximum stacksize for task 9: unlimited
  | Maximum stacksize for task 10: unlimited
  | Maximum stacksize for task 11: unlimited
  | Maximum stacksize for task 12: unlimited
  | Maximum stacksize for task 13: unlimited
  | Maximum stacksize for task 14: unlimited
  | Maximum stacksize for task 15: unlimited
  | Maximum stacksize for task 16: unlimited
  | Maximum stacksize for task 17: unlimited
  | Maximum stacksize for task 18: unlimited
  | Maximum stacksize for task 19: unlimited
  | Maximum stacksize for task 20: unlimited
  | Maximum stacksize for task 21: unlimited
  | Maximum stacksize for task 22: unlimited
  | Maximum stacksize for task 23: unlimited
  | Current stacksize for task 0: unlimited
  | Current stacksize for task 1: unlimited
  | Current stacksize for task 2: unlimited
  | Current stacksize for task 3: unlimited
  | Current stacksize for task 4: unlimited
  | Current stacksize for task 5: unlimited
  | Current stacksize for task 6: unlimited
  | Current stacksize for task 7: unlimited
  | Current stacksize for task 8: unlimited
  | Current stacksize for task 9: unlimited
  | Current stacksize for task 10: unlimited
  | Current stacksize for task 11: unlimited
  | Current stacksize for task 12: unlimited
  | Current stacksize for task 13: unlimited
  | Current stacksize for task 14: unlimited
  | Current stacksize for task 15: unlimited
  | Current stacksize for task 16: unlimited
  | Current stacksize for task 17: unlimited
  | Current stacksize for task 18: unlimited
  | Current stacksize for task 19: unlimited
  | Current stacksize for task 20: unlimited
  | Current stacksize for task 21: unlimited
  | Current stacksize for task 22: unlimited
  | Current stacksize for task 23: unlimited
 
  Consistency checks for the contents of control.in are next.
 
  MPI_IN_PLACE appears to work with this MPI implementation.
  | Keeping use_mpi_in_place .true. (see manual).
  Target number of points in a grid batch is not set. Defaulting to  100
  Method for grid partitioning is not set. Defaulting to parallel hash+maxmin partitioning.
  Batch size limit is not set. Defaulting to    200
  By default, will store active basis functions for each batch.
  If in need of memory, prune_basis_once .false. can be used to disable this option.
  communication_type for Hartree potential was not specified.
  Defaulting to calc_hartree .
  Pulay mixer: Number of initial linear mixing iterations not set.
  Defaulting to    0 iterations.
  Work space size for distributed Hartree potential not set.
  Defaulting to   0.200000E+03 MB.
  Algorithm-dependent basis array size parameters:
  | n_max_pulay                         :       10
  Presetting      1001 iterations before the initial mixing cycle
  is restarted anyway using the sc_init_iter criterion / keyword.
  Presetting a factor      1.000 between actual scf density residual
  and density convergence criterion sc_accuracy_rho below which sc_init_iter
  takes no effect.
  Geometry relaxation not requested: no relaxation will be performed.
  Forces evaluation will include force correction term due to incomplete self-consistency (default).
  Handling of forces: Unphysical translation and rotation will be removed from forces.
  No accuracy limit for integral partition fn. given. Defaulting to  0.1000E-14.
  No threshold value for u(r) in integrations given. Defaulting to  0.1000E-05.
  No accuracy for occupation numbers given. Defaulting to  0.1000E-12.
  No threshold value for occupation numbers given. Defaulting to  0.0000E+00.
  No accuracy for fermi level given. Defaulting to  0.1000E-19.
  Maximum # of iterations to find E_F not set. Defaulting to  200.
  Preferred method for the eigenvalue solver ('KS_method') not specified in 'control.in'.
  Calling BLACS routine to test compilation state
  Since ScaLAPACK support is enabled, defaulting to ELPA (via ELSI).
  Will not use alltoall communication since running on < 1024 CPUs.
  Threshold for basis singularities not set.
  Default threshold for basis singularities:  0.1000E-04
  partition_type (choice of integration weights) for integrals was not specified.
  | Using a version of the partition function of Stratmann and coworkers ('stratmann_sparse').
  | At each grid point, the set of atoms used to build the partition table is smoothly restricted to
  | only those atoms whose free-atom density would be non-zero at that grid point.
  Partitioning for Hartree potential was not defined. Using partition_type for integrals.
  | Adjusted default value of keyword multip_moments_threshold to:       0.10000000E-11
  | This value may affect high angular momentum components of the Hartree potential in periodic systems.
  No q(lm)/r^(l+1) cutoff set for long-range Hartree potential.
  | Using default value of  0.100000E-09 .
  | Verify using the multipole_threshold keyword.
  Defaulting to new monopole extrapolation.
  Density update method: automatic selection selected.
  Charge integration errors on the 3D integration grid will be compensated
  by explicit normalization and distribution of residual charges.
  Use the "compensate_multipole_errors" flag to change this behaviour.
  Set 'collect_eigenvectors' to be '.true.' for use_density_matrix .false.
 
  Consistency checks for the contents of geometry.in are next.
 
  Number of empty states per atom not set in control.in - providing a guess from actual geometry.
  | Total number of empty states used during s.c.f. cycle:       36
  If you use a very high smearing, use empty_states (per atom!) in control.in to increase this value.

  Structure-dependent array size parameters: 
  | Maximum number of distinct radial functions  :       14
  | Maximum number of basis functions            :      180
  | Number of Kohn-Sham states (occupied + empty):       96
------------------------------------------------------------

------------------------------------------------------------
          Preparing all fixed parts of the calculation.
------------------------------------------------------------
  Determining machine precision:
    2.225073858507201E-308
  Setting up grids for atomic and cluster calculations.

  Creating wave function, potential, and density for free atoms.

  Species: Al

  List of occupied orbitals and eigenvalues:
    n    l              occ      energy [Ha]    energy [eV]
    1    0           2.0000       -55.621123     -1513.5278
    2    0           2.0000        -3.957030      -107.6763
    3    0           2.0000        -0.272233        -7.4078
    2    1           6.0000        -2.540949       -69.1427
    3    1           1.0000        -0.083300        -2.2667


  Species: F

  List of occupied orbitals and eigenvalues:
    n    l              occ      energy [Ha]    energy [eV]
    1    0           2.0000       -24.399611      -663.9472
    2    0           2.0000        -1.098702       -29.8972
    2    1           5.0000        -0.408210       -11.1080


  Adding cutoff potential to free-atom effective potential.
  Creating fixed part of basis set: Ionic, confined, hydrogenic.
 
  Al                   ion:

  List of free ionic orbitals and eigenvalues:
    n    l      energy [Ha]    energy [eV]
    1    0       -56.418846     -1535.2349
    2    0        -4.732717      -128.7838
    3    0        -0.872690       -23.7471
    2    1        -3.317230       -90.2664


  List of ionic basis orbitals and eigenvalues:
    n    l      energy [Ha]    energy [eV]    outer radius [A]
    3    2        -0.346815        -9.4373       4.594041
    3    1        -0.631870       -17.1940       4.538221
    3    0        -0.872657       -23.7462       4.538221

 
  F                    hydrogenic:
 
  List of hydrogenic basis orbitals: 
    n    l      effective z      eigenvalue [eV]  inner max. [A]     outer max. [A]     outer radius [A]   
    2    1         1.700000        -9.7616           1.243167           1.243167           4.598524
    3    2         7.400000       -82.7828           0.642437           0.642437           3.305741
    3    0         6.800000       -69.9026           0.057798           1.022307           3.781556
 
  Creating atomic-like basis functions for current effective potential.

  Species Al                  :

  List of atomic basis orbitals and eigenvalues:
    n    l      energy [Ha]    energy [eV]    outer radius [A]
    1    0       -55.621123     -1513.5278       0.850197
    2    0        -3.957030      -107.6763       3.144911
    3    0        -0.272233        -7.4078       4.594041
    2    1        -2.540949       -69.1427       3.731966
    3    1        -0.083300        -2.2667       4.594041


  Species F                   :

  List of atomic basis orbitals and eigenvalues:
    n    l      energy [Ha]    energy [eV]    outer radius [A]
    1    0       -24.399611      -663.9472       1.258458
    2    0        -1.098702       -29.8972       4.325857
    2    1        -0.408210       -11.1080       4.487453

  Assembling full basis from fixed parts.
  | Species Al :   atomic orbital   1 s accepted.
  | Species Al :   atomic orbital   2 s accepted.
  | Species Al :    ionic orbital   3 s accepted.
  | Species Al :   atomic orbital   3 s accepted.
  | Species Al :   atomic orbital   2 p accepted.
  | Species Al :    ionic orbital   3 p accepted.
  | Species Al :   atomic orbital   3 p accepted.
  | Species Al :    ionic orbital   3 d accepted.
  | Species F :   atomic orbital   1 s accepted.
  | Species F :    hydro orbital   3 s accepted.
  | Species F :   atomic orbital   2 s accepted.
  | Species F :   atomic orbital   2 p accepted.
  | Species F :    hydro orbital   2 p accepted.
  | Species F :    hydro orbital   3 d accepted.
 
  Basis size parameters after reduction:
  | Total number of radial functions:       14
  | Total number of basis functions :      180
 
  Per-task memory consumption for arrays in subroutine allocate_ext:
  |           4.807768MB.
  Testing on-site integration grid accuracy.
  |  Species  Function  <phi|h_atom|phi> (log., in eV)  <phi|h_atom|phi> (rad., in eV)
           1        1              -1513.5277717935              -1513.5271881332
           1        2               -107.6762691836               -107.6762662489
           1        3                 -6.9467474784                 -6.9471269649
           1        4                  5.5771951849                  5.4862107220 ***
           1        5                -69.1427313144                -69.1427312731
           1        6                 -1.5197375330                 -1.5230432022
           1        7                  6.8210948310                  6.5529872240 ***
           1        8                  4.3216540965                  4.2851170187 ***
           2        9               -663.9471986398               -663.9470363334
           2       10                 16.8514011578                 16.8512525338
           2       11                -28.4490593856                -28.4490661472
           2       12                -11.1080115307                -11.1080620173
           2       13                  7.1940182175                  7.1685154137
           2       14                 44.8544281765                 44.8543763625
 * Note: Onsite integrals marked "***" above are less accurate than
 * onsite_accuracy_threshold =    0.03000 eV. Usually, this is harmless.
 * When in doubt, tighten the "radial" and/or "radial_multiplier" flags to check.

  Preparing densities etc. for the partition functions (integrals / Hartree potential).

  Preparations completed.
  max(cpu_time)          :      0.183 s.
  Wall clock time (cpu1) :      0.184 s.
------------------------------------------------------------

------------------------------------------------------------
          Begin self-consistency loop: Initialization.

          Date     :  20220517, Time     :  114929.315
------------------------------------------------------------

  Initializing index lists of integration centers etc. from given atomic structure:
  | Number of centers in hartree potential         :        12
  | Number of centers in hartree multipole         :        12
  | Number of centers in electron density summation:        12
  | Number of centers in basis integrals           :        12
  | Number of centers in integrals                 :        12
  | Number of centers in hamiltonian               :        12
  * Using 24 tasks for Scalapack Eigenvalue solver.
  Detailed listing of tasks and assigned k-points:
  (for non-periodic systems, the "k-point" denotes an internal label only)
   Task     0 k-point     1 on node-k98e-003
   Task     1 k-point     1 on node-k98e-003
   Task     2 k-point     1 on node-k98e-003
   Task     3 k-point     1 on node-k98e-003
   Task     4 k-point     1 on node-k98e-003
   Task     5 k-point     1 on node-k98e-003
   Task     6 k-point     1 on node-k98e-003
   Task     7 k-point     1 on node-k98e-003
   Task     8 k-point     1 on node-k98e-003
   Task     9 k-point     1 on node-k98e-003
   Task    10 k-point     1 on node-k98e-003
   Task    11 k-point     1 on node-k98e-003
   Task    12 k-point     1 on node-k98e-003
   Task    13 k-point     1 on node-k98e-003
   Task    14 k-point     1 on node-k98e-003
   Task    15 k-point     1 on node-k98e-003
   Task    16 k-point     1 on node-k98e-003
   Task    17 k-point     1 on node-k98e-003
   Task    18 k-point     1 on node-k98e-003
   Task    19 k-point     1 on node-k98e-003
   Task    20 k-point     1 on node-k98e-003
   Task    21 k-point     1 on node-k98e-003
   Task    22 k-point     1 on node-k98e-003
   Task    23 k-point     1 on node-k98e-003
  Tasks:    24 split into      6 X      4 BLACS grid
  Calculating block size based on n_basis =          180  max_nprow =            6  max_npcol =            4
  ScaLAPACK block size set to:           16
  Allocating        0.012 MB for ovlp
  Allocating        0.012 MB for ham
  Allocating        0.012 MB for eigenvec
  Required Scalapack workspace - INTEGER:            1  REAL:             1
  Partitioning the integration grid into batches with parallel hashing+maxmin method.
  | Number of batches:     1014
  | Maximal batch size:     181
  | Minimal batch size:      21
  | Average batch size:      90.651
  | Standard deviation of batch sizes:      23.694

  Integration load balanced across    24 MPI tasks.
  Work distribution over tasks is as follows:
  Task     0 has       3747 integration points.
  Task     1 has       3780 integration points.
  Task     2 has       3909 integration points.
  Task     3 has       3782 integration points.
  Task     4 has       3904 integration points.
  Task     5 has       3827 integration points.
  Task     6 has       3832 integration points.
  Task     7 has       3857 integration points.
  Task     8 has       3882 integration points.
  Task     9 has       3910 integration points.
  Task    10 has       3751 integration points.
  Task    11 has       3815 integration points.
  Task    12 has       3780 integration points.
  Task    13 has       3776 integration points.
  Task    14 has       3789 integration points.
  Task    15 has       3861 integration points.
  Task    16 has       3780 integration points.
  Task    17 has       3886 integration points.
  Task    18 has       3800 integration points.
  Task    19 has       3913 integration points.
  Task    20 has       3832 integration points.
  Task    21 has       3844 integration points.
  Task    22 has       3879 integration points.
  Task    23 has       3784 integration points.
  Initializing partition tables, free-atom densities, potentials, etc. across the integration grid (initialize_grid_storage).
  | initialize_grid_storage: Actual outermost partition radius vs. multipole_radius_free
  | (-- VB: in principle, multipole_radius_free should be larger, hence this output)
  | Species        1: Confinement radius =              4.999999999999999 AA, multipole_radius_free =              5.004487022111096 AA.
  | Species        1: outer_partition_radius set to              5.004487022111096 AA .
  | Species        2: Confinement radius =              4.999999999999999 AA, multipole_radius_free =              5.009370088163274 AA.
  | Species        2: outer_partition_radius set to              5.009370088163274 AA .
  | The sparse table of interatomic distances needs          1.64 kbyte instead of         1.15 kbyte of memory.
  | Using the partition_type stratmann_smoother will reduce your memory usage.
  | Net number of integration points:    91920
  | of which are non-zero points    :    84880
  Renormalizing the initial density to the exact electron count on the 3D integration grid.
  | Initial density: Formal number of electrons (from input files) :     120.0000000000
  | Integrated number of electrons on 3D grid     :     119.9999498844
  | Charge integration error                      :      -0.0000501156
  | Normalization factor for density and gradient :       1.0000004176
  Renormalizing the free-atom superposition density to the exact electron count on the 3D integration grid.
  | Formal number of electrons (from input files) :     120.0000000000
  | Integrated number of electrons on 3D grid     :     119.9999498844
  | Charge integration error                      :      -0.0000501156
  | Normalization factor for density and gradient :       1.0000004176
  Obtaining max. number of non-zero basis functions in each batch (get_n_compute_maxes).
  | Maximal number of non-zero basis functions:      166 in task     0
  | Maximal number of non-zero basis functions:      164 in task     1
  | Maximal number of non-zero basis functions:      171 in task     2
  | Maximal number of non-zero basis functions:      165 in task     3
  | Maximal number of non-zero basis functions:      168 in task     4
  | Maximal number of non-zero basis functions:      166 in task     5
  | Maximal number of non-zero basis functions:      166 in task     6
  | Maximal number of non-zero basis functions:      160 in task     7
  | Maximal number of non-zero basis functions:      169 in task     8
  | Maximal number of non-zero basis functions:      165 in task     9
  | Maximal number of non-zero basis functions:      159 in task    10
  | Maximal number of non-zero basis functions:      170 in task    11
  | Maximal number of non-zero basis functions:      165 in task    12
  | Maximal number of non-zero basis functions:      165 in task    13
  | Maximal number of non-zero basis functions:      165 in task    14
  | Maximal number of non-zero basis functions:      165 in task    15
  | Maximal number of non-zero basis functions:      172 in task    16
  | Maximal number of non-zero basis functions:      165 in task    17
  | Maximal number of non-zero basis functions:      170 in task    18
  | Maximal number of non-zero basis functions:      172 in task    19
  | Maximal number of non-zero basis functions:      173 in task    20
  | Maximal number of non-zero basis functions:      166 in task    21
  | Maximal number of non-zero basis functions:      167 in task    22
  | Maximal number of non-zero basis functions:      166 in task    23
  Selecting the method for density update.
  Loop over occupied states selected for charge density update.
  Allocating        0.132 MB for KS_eigenvector
  Integrating Hamiltonian matrix: batch-based integration.
  Time summed over all CPUs for integration: real work        0.722 s, elapsed        0.762 s
  Integrating overlap matrix.
  Time summed over all CPUs for integration: real work        0.282 s, elapsed        0.295 s
  Deallocating overlap matrix.

  Updating Kohn-Sham eigenvalues and eigenvectors using ELSI and the ELPA eigensolver.
  Overlap matrix is not singular
  | Lowest and highest eigenvalues :  0.9786E-03,  0.5590E+01
  Finished singularity check of overlap matrix
  | Time :     0.004 s
  Starting ELPA eigensolver
  Finished Cholesky decomposition
  | Time :     0.002 s
  Finished transformation to standard eigenproblem
  | Time :     0.000 s
  Finished solving standard eigenproblem
  | Time :     0.004 s
  Finished back-transformation of eigenvectors
  | Time :     0.000 s

  Obtaining occupation numbers and chemical potential using ELSI.
  | Chemical potential (Fermi level):    -7.53872312 eV
  Writing Kohn-Sham eigenvalues.

  State    Occupation    Eigenvalue [Ha]    Eigenvalue [eV]
      1       2.00000         -55.527427        -1510.97817
      2       2.00000         -55.498926        -1510.20262
      3       2.00000         -55.481507        -1509.72863
      4       2.00000         -24.697837         -672.06233
      5       2.00000         -24.404289         -664.07449
      6       2.00000         -24.404289         -664.07449
      7       2.00000         -24.367187         -663.06489
      8       2.00000         -24.345930         -662.48647
      9       2.00000         -24.345930         -662.48647
     10       2.00000         -24.341362         -662.36217
     11       2.00000         -24.332818         -662.12968
     12       2.00000         -24.331657         -662.09808
     13       2.00000          -4.029479         -109.64770
     14       2.00000          -3.972670         -108.10186
     15       2.00000          -3.945214         -107.35473
     16       2.00000          -2.681397          -72.96452
     17       2.00000          -2.595259          -70.62060
     18       2.00000          -2.594571          -70.60187
     19       2.00000          -2.567208          -69.85728
     20       2.00000          -2.565366          -69.80716
     21       2.00000          -2.565239          -69.80371
     22       2.00000          -2.537598          -69.05155
     23       2.00000          -2.537171          -69.03993
     24       2.00000          -2.535827          -69.00338
     25       2.00000          -1.446270          -39.35501
     26       2.00000          -1.249773          -34.00804
     27       2.00000          -1.224561          -33.32201
     28       2.00000          -1.184670          -32.23652
     29       2.00000          -1.161312          -31.60090
     30       2.00000          -1.154158          -31.40624
     31       2.00000          -1.151840          -31.34317
     32       2.00000          -1.138285          -30.97431
     33       2.00000          -1.135658          -30.90283
     34       2.00000          -0.810005          -22.04135
     35       2.00000          -0.780116          -21.22803
     36       2.00000          -0.754588          -20.53338
     37       2.00000          -0.590287          -16.06252
     38       2.00000          -0.575778          -15.66772
     39       2.00000          -0.560752          -15.25883
     40       2.00000          -0.545444          -14.84228
     41       2.00000          -0.523521          -14.24574
     42       2.00000          -0.519805          -14.14463
     43       2.00000          -0.515638          -14.03122
     44       2.00000          -0.503998          -13.71447
     45       2.00000          -0.493802          -13.43704
     46       2.00000          -0.491862          -13.38425
     47       2.00000          -0.487966          -13.27824
     48       2.00000          -0.478237          -13.01348
     49       2.00000          -0.475286          -12.93319
     50       2.00000          -0.472750          -12.86419
     51       2.00000          -0.466867          -12.70409
     52       2.00000          -0.462720          -12.59124
     53       2.00000          -0.462156          -12.57590
     54       2.00000          -0.450358          -12.25486
     55       2.00000          -0.449888          -12.24207
     56       2.00000          -0.445516          -12.12311
     57       2.00000          -0.443759          -12.07529
     58       2.00000          -0.443402          -12.06558
     59       2.00000          -0.440377          -11.98327
     60       2.00000          -0.436459          -11.87665
     61       0.00000          -0.160239           -4.36032
     62       0.00000          -0.084473           -2.29862
     63       0.00000          -0.052105           -1.41784
     64       0.00000          -0.034515           -0.93920
     65       0.00000          -0.002425           -0.06598
     66       0.00000           0.004031            0.10969
     67       0.00000           0.018593            0.50593
     68       0.00000           0.039228            1.06744
     69       0.00000           0.061667            1.67806
     70       0.00000           0.067444            1.83524
     71       0.00000           0.104020            2.83053
     72       0.00000           0.135654            3.69133
     73       0.00000           0.153255            4.17029
     74       0.00000           0.154901            4.21506
     75       0.00000           0.166088            4.51947
     76       0.00000           0.174744            4.75503
     77       0.00000           0.176809            4.81121
     78       0.00000           0.192342            5.23389
     79       0.00000           0.194198            5.28440
     80       0.00000           0.211118            5.74481
     81       0.00000           0.222525            6.05521
     82       0.00000           0.236047            6.42317
     83       0.00000           0.238193            6.48157
     84       0.00000           0.244156            6.64383
     85       0.00000           0.255658            6.95680
     86       0.00000           0.258898            7.04497
     87       0.00000           0.271117            7.37747
     88       0.00000           0.292019            7.94625
     89       0.00000           0.300220            8.16940
     90       0.00000           0.317883            8.65003
     91       0.00000           0.318311            8.66170
     92       0.00000           0.332883            9.05822
     93       0.00000           0.333811            9.08345
     94       0.00000           0.354583            9.64869
     95       0.00000           0.376950           10.25732
     96       0.00000           0.378100           10.28862

  Highest occupied state (VBM) at    -11.87665329 eV
  | Occupation number:      2.00000000

  Lowest unoccupied state (CBM) at    -4.36031677 eV
  | Occupation number:      0.00000000

  Overall HOMO-LUMO gap:      7.51633652 eV.
  Calculating total energy contributions from superposition of free atom densities.

  Total energy components:
  | Sum of eigenvalues            :        -892.26804292 Ha      -24279.84879289 eV
  | XC energy correction          :        -144.72642866 Ha       -3938.20649755 eV
  | XC potential correction       :         188.46851222 Ha        5128.48915209 eV
  | Free-atom electrostatic energy:        -776.20386448 Ha      -21121.58180663 eV
  | Hartree energy correction     :           0.00000000 Ha           0.00000000 eV
  | Entropy correction            :           0.00000000 Ha           0.00000000 eV
  | ---------------------------
  | Total energy                  :       -1624.72982383 Ha      -44211.14794499 eV
  | Total energy, T -> 0          :       -1624.72982383 Ha      -44211.14794499 eV  <-- do not rely on this value for anything but (periodic) metals
  | Electronic free energy        :       -1624.72982383 Ha      -44211.14794499 eV

  Derived energy quantities:
  | Kinetic energy                :        1629.27530064 Ha       44334.83666214 eV
  | Electrostatic energy          :       -3109.27869582 Ha      -84607.77810958 eV
  | Energy correction for multipole
  | error in Hartree potential    :           0.00000000 Ha           0.00000000 eV
  | Sum of eigenvalues per atom                           :       -2023.32073274 eV
  | Total energy (T->0) per atom                          :       -3684.26232875 eV  <-- do not rely on this value for anything but (periodic) metals
  | Electronic free energy per atom                       :       -3684.26232875 eV
  Initialize hartree_potential_storage
  Max. number of atoms included in rho_multipole:           12

  End scf initialization - timings             :  max(cpu_time)    wall_clock(cpu1)
  | Time for scf. initialization                :        0.126 s           0.126 s
  | Boundary condition initialization           :        0.000 s           0.001 s
  | Integration                                 :        0.046 s           0.045 s
  | Solution of K.-S. eqns.                     :        0.012 s           0.012 s
  | Grid partitioning                           :        0.042 s           0.042 s
  | Preloading free-atom quantities on grid     :        0.016 s           0.016 s
  | Free-atom superposition energy              :        0.005 s           0.005 s
  | Total energy evaluation                     :        0.000 s           0.000 s

  Partial memory accounting:
  | Current value for overall tracked memory usage:
  |   Minimum:        0.273 MB (on task 23)
  |   Maximum:        0.292 MB (on task  0)
  |   Average:        0.287 MB
  | Peak value for overall tracked memory usage:
  |   Minimum:        1.269 MB (on task  7 after allocating wave)
  |   Maximum:        1.358 MB (on task 16 after allocating wave)
  |   Average:        1.318 MB
  | Largest tracked array allocation so far:
  |   Minimum:        0.221 MB (H_times_psi on task  7)
  |   Maximum:        0.522 MB (all_coords on task 10)
  |   Average:        0.261 MB
  Note:  These values currently only include a subset of arrays which are explicitly tracked.
  The "true" memory usage will be greater.
------------------------------------------------------------
  Evaluating new KS density.
  Integration grid: deviation in total charge (<rho> - N_e) =   8.526513E-14

  Time for density update prior                :  max(cpu_time)    wall_clock(cpu1)
  | self-consistency iterative process          :        0.029 s           0.028 s

------------------------------------------------------------
          Begin self-consistency iteration #    1

  Date     :  20220517, Time     :  114929.471
------------------------------------------------------------
  Pulay mixing of updated and previous charge densities.
  Renormalizing the density to the exact electron count on the 3D integration grid.
  | Formal number of electrons (from input files) :     120.0000000000
  | Integrated number of electrons on 3D grid     :     120.0000000000
  | Charge integration error                      :       0.0000000000
  | Normalization factor for density and gradient :       1.0000000000

  Evaluating partitioned Hartree potential by multipole expansion.
  | Original multipole sum: apparent total charge =   0.204161E-13
  | Sum of charges compensated after spline to logarithmic grids =   0.148713E-03
  | Analytical far-field extrapolation by fixed multipoles:
  | Hartree multipole sum: apparent total charge =   0.216214E-13
  Summing up the Hartree potential.
  Time summed over all CPUs for potential: real work        0.382 s, elapsed        0.400 s
  | RMS charge density error from multipole expansion :   0.137419E-01

  Integrating Hamiltonian matrix: batch-based integration.
  Time summed over all CPUs for integration: real work        0.682 s, elapsed        0.708 s

  Updating Kohn-Sham eigenvalues and eigenvectors using ELSI and the ELPA eigensolver.
  Starting ELPA eigensolver
  Finished transformation to standard eigenproblem
  | Time :     0.000 s
  Finished solving standard eigenproblem
  | Time :     0.004 s
  Finished back-transformation of eigenvectors
  | Time :     0.000 s

  Obtaining occupation numbers and chemical potential using ELSI.
  | Chemical potential (Fermi level):    -7.14308164 eV
  Writing Kohn-Sham eigenvalues.

  State    Occupation    Eigenvalue [Ha]    Eigenvalue [eV]
      1       2.00000         -55.702170        -1515.73317
      2       2.00000         -55.597111        -1512.87437
      3       2.00000         -55.519468        -1510.76158
      4       2.00000         -24.309796         -661.50321
      5       2.00000         -24.229036         -659.30561
      6       2.00000         -24.229026         -659.30535
      7       2.00000         -24.095751         -655.67874
      8       2.00000         -24.089019         -655.49557
      9       2.00000         -24.079393         -655.23362
     10       2.00000         -24.062309         -654.76875
     11       2.00000         -24.041003         -654.18898
     12       2.00000         -24.041000         -654.18890
     13       2.00000          -4.131517         -112.42429
     14       2.00000          -4.062762         -110.55337
     15       2.00000          -4.037479         -109.86540
     16       2.00000          -2.726003          -74.17832
     17       2.00000          -2.724827          -74.14631
     18       2.00000          -2.722313          -74.07792
     19       2.00000          -2.674696          -72.78217
     20       2.00000          -2.657367          -72.31062
     21       2.00000          -2.655240          -72.25275
     22       2.00000          -2.653657          -72.20969
     23       2.00000          -2.607722          -70.95973
     24       2.00000          -2.606837          -70.93566
     25       2.00000          -1.336329          -36.36337
     26       2.00000          -1.202212          -32.71386
     27       2.00000          -1.172114          -31.89485
     28       2.00000          -1.059680          -28.83536
     29       2.00000          -1.028498          -27.98686
     30       2.00000          -1.019878          -27.75229
     31       2.00000          -1.002345          -27.27520
     32       2.00000          -0.994649          -27.06579
     33       2.00000          -0.987605          -26.87410
     34       2.00000          -0.707638          -19.25581
     35       2.00000          -0.673755          -18.33380
     36       2.00000          -0.648238          -17.63945
     37       2.00000          -0.551279          -15.00106
     38       2.00000          -0.546125          -14.86082
     39       2.00000          -0.521207          -14.18276
     40       2.00000          -0.497075          -13.52610
     41       2.00000          -0.465849          -12.67640
     42       2.00000          -0.450197          -12.25048
     43       2.00000          -0.414059          -11.26711
     44       2.00000          -0.404077          -10.99549
     45       2.00000          -0.399956          -10.88337
     46       2.00000          -0.367068           -9.98843
     47       2.00000          -0.360737           -9.81614
     48       2.00000          -0.358614           -9.75838
     49       2.00000          -0.355850           -9.68316
     50       2.00000          -0.347783           -9.46365
     51       2.00000          -0.339728           -9.24446
     52       2.00000          -0.334628           -9.10570
     53       2.00000          -0.331160           -9.01132
     54       2.00000          -0.326777           -8.89206
     55       2.00000          -0.315334           -8.58068
     56       2.00000          -0.312963           -8.51616
     57       2.00000          -0.308939           -8.40665
     58       2.00000          -0.297995           -8.10886
     59       2.00000          -0.291189           -7.92365
     60       2.00000          -0.284541           -7.74276
     61       0.00000          -0.179706           -4.89004
     62       0.00000          -0.092407           -2.51452
     63       0.00000          -0.080044           -2.17812
     64       0.00000          -0.020177           -0.54904
     65       0.00000          -0.019014           -0.51740
     66       0.00000          -0.005100           -0.13878
     67       0.00000           0.009221            0.25093
     68       0.00000           0.056393            1.53452
     69       0.00000           0.087865            2.39094
     70       0.00000           0.100417            2.73249
     71       0.00000           0.109018            2.96653
     72       0.00000           0.118206            3.21655
     73       0.00000           0.149237            4.06094
     74       0.00000           0.149539            4.06917
     75       0.00000           0.158698            4.31839
     76       0.00000           0.181787            4.94669
     77       0.00000           0.191104            5.20021
     78       0.00000           0.194626            5.29603
     79       0.00000           0.199401            5.42597
     80       0.00000           0.203729            5.54374
     81       0.00000           0.217414            5.91615
     82       0.00000           0.244181            6.64450
     83       0.00000           0.247130            6.72474
     84       0.00000           0.259255            7.05469
     85       0.00000           0.265795            7.23265
     86       0.00000           0.270395            7.35781
     87       0.00000           0.278905            7.58938
     88       0.00000           0.305886            8.32357
     89       0.00000           0.322158            8.76635
     90       0.00000           0.322800            8.78383
     91       0.00000           0.337961            9.19640
     92       0.00000           0.347836            9.46510
     93       0.00000           0.362503            9.86420
     94       0.00000           0.374047           10.17834
     95       0.00000           0.381863           10.39103
     96       0.00000           0.394884           10.74534

  Highest occupied state (VBM) at     -7.74276435 eV
  | Occupation number:      2.00000000

  Lowest unoccupied state (CBM) at    -4.89004221 eV
  | Occupation number:      0.00000000

  Overall HOMO-LUMO gap:      2.85272215 eV.

  Total energy components:
  | Sum of eigenvalues            :        -882.54314990 Ha      -24015.22098987 eV
  | XC energy correction          :        -146.39655233 Ha       -3983.65287500 eV
  | XC potential correction       :         190.66360376 Ha        5188.22063205 eV
  | Free-atom electrostatic energy:        -776.20386448 Ha      -21121.58180663 eV
  | Hartree energy correction     :          -9.90632196 Ha        -269.56473587 eV
  | Entropy correction            :           0.00000000 Ha           0.00000000 eV
  | ---------------------------
  | Total energy                  :       -1624.38628491 Ha      -44201.79977533 eV
  | Total energy, T -> 0          :       -1624.38628491 Ha      -44201.79977533 eV  <-- do not rely on this value for anything but (periodic) metals
  | Electronic free energy        :       -1624.38628491 Ha      -44201.79977533 eV

  Derived energy quantities:
  | Kinetic energy                :        1639.10822518 Ha       44602.40415251 eV
  | Electrostatic energy          :       -3117.09795776 Ha      -84820.55105284 eV
  | Energy correction for multipole
  | error in Hartree potential    :           0.05408520 Ha           1.47173314 eV
  | Sum of eigenvalues per atom                           :       -2001.26841582 eV
  | Total energy (T->0) per atom                          :       -3683.48331461 eV  <-- do not rely on this value for anything but (periodic) metals
  | Electronic free energy per atom                       :       -3683.48331461 eV
  Evaluating new KS density.
  Integration grid: deviation in total charge (<rho> - N_e) =   2.842171E-14

  Self-consistency convergence accuracy:
  | Change of charge density      :  0.7762E+00
  | Change of sum of eigenvalues  :  0.2646E+03 eV
  | Change of total energy        :  0.9348E+01 eV


------------------------------------------------------------
  End self-consistency iteration #     1       :  max(cpu_time)    wall_clock(cpu1)
  | Time for this iteration                     :        0.082 s           0.081 s
  | Charge density update                       :        0.027 s           0.027 s
  | Density mixing                              :        0.001 s           0.000 s
  | Hartree multipole update                    :        0.001 s           0.002 s
  | Hartree multipole summation                 :        0.017 s           0.017 s
  | Integration                                 :        0.030 s           0.030 s
  | Solution of K.-S. eqns.                     :        0.005 s           0.004 s
  | Total energy evaluation                     :        0.000 s           0.000 s

  Partial memory accounting:
  | Current value for overall tracked memory usage:
  |   Minimum:        0.273 MB (on task 23)
  |   Maximum:        0.292 MB (on task  0)
  |   Average:        0.287 MB
  | Peak value for overall tracked memory usage:
  |   Minimum:        1.269 MB (on task  7 after allocating wave)
  |   Maximum:        1.358 MB (on task 16 after allocating wave)
  |   Average:        1.318 MB
  | Largest tracked array allocation so far:
  |   Minimum:        0.659 MB (gradient_basis_wave on task 10)
  |   Maximum:        0.717 MB (gradient_basis_wave on task 20)
  |   Average:        0.690 MB
  Note:  These values currently only include a subset of arrays which are explicitly tracked.
  The "true" memory usage will be greater.
------------------------------------------------------------

------------------------------------------------------------
          Begin self-consistency iteration #    2

  Date     :  20220517, Time     :  114929.558
------------------------------------------------------------
  Pulay mixing of updated and previous charge densities.
  Renormalizing the density to the exact electron count on the 3D integration grid.
  | Formal number of electrons (from input files) :     120.0000000000
  | Integrated number of electrons on 3D grid     :     120.0000000000
  | Charge integration error                      :       0.0000000000
  | Normalization factor for density and gradient :       1.0000000000

  Evaluating partitioned Hartree potential by multipole expansion.
  | Original multipole sum: apparent total charge =   0.168740E-13
  | Sum of charges compensated after spline to logarithmic grids =   0.113056E-03
  | Analytical far-field extrapolation by fixed multipoles:
  | Hartree multipole sum: apparent total charge =   0.167019E-13
  Summing up the Hartree potential.
  Time summed over all CPUs for potential: real work        0.380 s, elapsed        0.398 s
  | RMS charge density error from multipole expansion :   0.165475E-01

  Integrating Hamiltonian matrix: batch-based integration.
  Time summed over all CPUs for integration: real work        0.681 s, elapsed        0.709 s

  Updating Kohn-Sham eigenvalues and eigenvectors using ELSI and the ELPA eigensolver.
  Starting ELPA eigensolver
  Finished transformation to standard eigenproblem
  | Time :     0.000 s
  Finished solving standard eigenproblem
  | Time :     0.014 s
  Finished back-transformation of eigenvectors
  | Time :     0.003 s

  Obtaining occupation numbers and chemical potential using ELSI.
  | Chemical potential (Fermi level):    -7.38089150 eV
  Highest occupied state (VBM) at     -8.69297957 eV
  | Occupation number:      2.00000000

  Lowest unoccupied state (CBM) at    -5.36061619 eV
  | Occupation number:      0.00000000

  Overall HOMO-LUMO gap:      3.33236338 eV.

  Checking to see if s.c.f. parameters should be adjusted.

  Total energy components:
  | Sum of eigenvalues            :        -886.08266276 Ha      -24111.53603513 eV
  | XC energy correction          :        -145.86641245 Ha       -3969.22703468 eV
  | XC potential correction       :         189.96566973 Ha        5169.22888075 eV
  | Free-atom electrostatic energy:        -776.20386448 Ha      -21121.58180663 eV
  | Hartree energy correction     :          -6.13505374 Ha        -166.94330620 eV
  | Entropy correction            :           0.00000000 Ha           0.00000000 eV
  | ---------------------------
  | Total energy                  :       -1624.32232369 Ha      -44200.05930190 eV
  | Total energy, T -> 0          :       -1624.32232369 Ha      -44200.05930190 eV  <-- do not rely on this value for anything but (periodic) metals
  | Electronic free energy        :       -1624.32232369 Ha      -44200.05930190 eV

  Derived energy quantities:
  | Kinetic energy                :        1634.92536021 Ha       44488.58260558 eV
  | Electrostatic energy          :       -3113.38127146 Ha      -84719.41487280 eV
  | Energy correction for multipole
  | error in Hartree potential    :           0.05943383 Ha           1.61727685 eV
  | Sum of eigenvalues per atom                           :       -2009.29466959 eV
  | Total energy (T->0) per atom                          :       -3683.33827516 eV  <-- do not rely on this value for anything but (periodic) metals
  | Electronic free energy per atom                       :       -3683.33827516 eV
  Evaluating new KS density.
  Integration grid: deviation in total charge (<rho> - N_e) =   2.842171E-14

  Self-consistency convergence accuracy:
  | Change of charge density      :  0.4884E+00
  | Change of sum of eigenvalues  : -0.9632E+02 eV
  | Change of total energy        :  0.1740E+01 eV


------------------------------------------------------------
  End self-consistency iteration #     2       :  max(cpu_time)    wall_clock(cpu1)
  | Time for this iteration                     :        0.101 s           0.099 s
  | Charge density update                       :        0.030 s           0.030 s
  | Density mixing                              :        0.005 s           0.002 s
  | Hartree multipole update                    :        0.001 s           0.001 s
  | Hartree multipole summation                 :        0.017 s           0.017 s
  | Integration                                 :        0.030 s           0.030 s
  | Solution of K.-S. eqns.                     :        0.018 s           0.018 s
  | Total energy evaluation                     :        0.000 s           0.000 s

  Partial memory accounting:
  | Current value for overall tracked memory usage:
  |   Minimum:        0.274 MB (on task 23)
  |   Maximum:        0.293 MB (on task  0)
  |   Average:        0.288 MB
  | Peak value for overall tracked memory usage:
  |   Minimum:        1.269 MB (on task  7 after allocating wave)
  |   Maximum:        1.358 MB (on task 16 after allocating wave)
  |   Average:        1.318 MB
  | Largest tracked array allocation so far:
  |   Minimum:        0.659 MB (gradient_basis_wave on task 10)
  |   Maximum:        0.717 MB (gradient_basis_wave on task 20)
  |   Average:        0.690 MB
  Note:  These values currently only include a subset of arrays which are explicitly tracked.
  The "true" memory usage will be greater.
------------------------------------------------------------

------------------------------------------------------------
          Begin self-consistency iteration #    3

  Date     :  20220517, Time     :  114929.665
------------------------------------------------------------
  Pulay mixing of updated and previous charge densities.
  Renormalizing the density to the exact electron count on the 3D integration grid.
  | Formal number of electrons (from input files) :     120.0000000000
  | Integrated number of electrons on 3D grid     :     120.0000000000
  | Charge integration error                      :       0.0000000000
  | Normalization factor for density and gradient :       1.0000000000

  Evaluating partitioned Hartree potential by multipole expansion.
  | Original multipole sum: apparent total charge =   0.217444E-13
  | Sum of charges compensated after spline to logarithmic grids =   0.142835E-03
  | Analytical far-field extrapolation by fixed multipoles:
  | Hartree multipole sum: apparent total charge =   0.211049E-13
  Summing up the Hartree potential.
  Time summed over all CPUs for potential: real work        0.381 s, elapsed        0.398 s
  | RMS charge density error from multipole expansion :   0.203980E-01

  Integrating Hamiltonian matrix: batch-based integration.
  Time summed over all CPUs for integration: real work        0.681 s, elapsed        0.709 s

  Updating Kohn-Sham eigenvalues and eigenvectors using ELSI and the ELPA eigensolver.
  Starting ELPA eigensolver
  Finished transformation to standard eigenproblem
  | Time :     0.004 s
  Finished solving standard eigenproblem
  | Time :     0.015 s
  Finished back-transformation of eigenvectors
  | Time :     0.002 s

  Obtaining occupation numbers and chemical potential using ELSI.
  | Chemical potential (Fermi level):    -7.33648876 eV
  Highest occupied state (VBM) at     -8.45878448 eV
  | Occupation number:      2.00000000

  Lowest unoccupied state (CBM) at    -5.43582974 eV
  | Occupation number:      0.00000000

  Overall HOMO-LUMO gap:      3.02295474 eV.

  Total energy components:
  | Sum of eigenvalues            :        -886.49652443 Ha      -24122.79778425 eV
  | XC energy correction          :        -145.91227813 Ha       -3970.47510349 eV
  | XC potential correction       :         190.02476715 Ha        5170.83700356 eV
  | Free-atom electrostatic energy:        -776.20386448 Ha      -21121.58180663 eV
  | Hartree energy correction     :          -5.73061039 Ha        -155.93784286 eV
  | Entropy correction            :           0.00000000 Ha           0.00000000 eV
  | ---------------------------
  | Total energy                  :       -1624.31851028 Ha      -44199.95553368 eV
  | Total energy, T -> 0          :       -1624.31851028 Ha      -44199.95553368 eV  <-- do not rely on this value for anything but (periodic) metals
  | Electronic free energy        :       -1624.31851028 Ha      -44199.95553368 eV

  Derived energy quantities:
  | Kinetic energy                :        1634.26622651 Ha       44470.64666506 eV
  | Electrostatic energy          :       -3112.67245866 Ha      -84700.12709524 eV
  | Energy correction for multipole
  | error in Hartree potential    :           0.07097352 Ha           1.93128771 eV
  | Sum of eigenvalues per atom                           :       -2010.23314869 eV
  | Total energy (T->0) per atom                          :       -3683.32962781 eV  <-- do not rely on this value for anything but (periodic) metals
  | Electronic free energy per atom                       :       -3683.32962781 eV
  Evaluating new KS density.
  Integration grid: deviation in total charge (<rho> - N_e) =   7.105427E-14

  Self-consistency convergence accuracy:
  | Change of charge density      :  0.1320E+00
  | Change of sum of eigenvalues  : -0.1126E+02 eV
  | Change of total energy        :  0.1038E+00 eV


------------------------------------------------------------
  End self-consistency iteration #     3       :  max(cpu_time)    wall_clock(cpu1)
  | Time for this iteration                     :        0.115 s           0.113 s
  | Charge density update                       :        0.028 s           0.028 s
  | Density mixing                              :        0.005 s           0.003 s
  | Hartree multipole update                    :        0.009 s           0.009 s
  | Hartree multipole summation                 :        0.018 s           0.018 s
  | Integration                                 :        0.031 s           0.032 s
  | Solution of K.-S. eqns.                     :        0.023 s           0.022 s
  | Total energy evaluation                     :        0.000 s           0.001 s

  Partial memory accounting:
  | Current value for overall tracked memory usage:
  |   Minimum:        0.274 MB (on task 23)
  |   Maximum:        0.293 MB (on task  0)
  |   Average:        0.288 MB
  | Peak value for overall tracked memory usage:
  |   Minimum:        1.269 MB (on task  7 after allocating wave)
  |   Maximum:        1.358 MB (on task 16 after allocating wave)
  |   Average:        1.318 MB
  | Largest tracked array allocation so far:
  |   Minimum:        0.659 MB (gradient_basis_wave on task 10)
  |   Maximum:        0.717 MB (gradient_basis_wave on task 20)
  |   Average:        0.690 MB
  Note:  These values currently only include a subset of arrays which are explicitly tracked.
  The "true" memory usage will be greater.
------------------------------------------------------------

------------------------------------------------------------
          Begin self-consistency iteration #    4

  Date     :  20220517, Time     :  114929.783
------------------------------------------------------------
  Pulay mixing of updated and previous charge densities.
  Renormalizing the density to the exact electron count on the 3D integration grid.
  | Formal number of electrons (from input files) :     120.0000000000
  | Integrated number of electrons on 3D grid     :     120.0000000000
  | Charge integration error                      :       0.0000000000
  | Normalization factor for density and gradient :       1.0000000000

  Evaluating partitioned Hartree potential by multipole expansion.
  | Original multipole sum: apparent total charge =   0.548038E-13
  | Sum of charges compensated after spline to logarithmic grids =   0.161740E-03
  | Analytical far-field extrapolation by fixed multipoles:
  | Hartree multipole sum: apparent total charge =   0.573619E-13
  Summing up the Hartree potential.
  Time summed over all CPUs for potential: real work        0.381 s, elapsed        0.398 s
  | RMS charge density error from multipole expansion :   0.233366E-01

  Integrating Hamiltonian matrix: batch-based integration.
  Time summed over all CPUs for integration: real work        0.681 s, elapsed        0.710 s

  Updating Kohn-Sham eigenvalues and eigenvectors using ELSI and the ELPA eigensolver.
  Starting ELPA eigensolver
  Finished transformation to standard eigenproblem
  | Time :     0.003 s
  Finished solving standard eigenproblem
  | Time :     0.015 s
  Finished back-transformation of eigenvectors
  | Time :     0.001 s

  Obtaining occupation numbers and chemical potential using ELSI.
  | Chemical potential (Fermi level):    -7.34213044 eV
  Highest occupied state (VBM) at     -8.29316290 eV
  | Occupation number:      2.00000000

  Lowest unoccupied state (CBM) at    -5.51818566 eV
  | Occupation number:      0.00000000

  Overall HOMO-LUMO gap:      2.77497724 eV.

  Total energy components:
  | Sum of eigenvalues            :        -886.67769918 Ha      -24127.72779995 eV
  | XC energy correction          :        -145.89792023 Ha       -3970.08440523 eV
  | XC potential correction       :         190.00481126 Ha        5170.29397598 eV
  | Free-atom electrostatic energy:        -776.20386448 Ha      -21121.58180663 eV
  | Hartree energy correction     :          -5.54099534 Ha        -150.77815463 eV
  | Entropy correction            :           0.00000000 Ha           0.00000000 eV
  | ---------------------------
  | Total energy                  :       -1624.31566797 Ha      -44199.87819046 eV
  | Total energy, T -> 0          :       -1624.31566797 Ha      -44199.87819046 eV  <-- do not rely on this value for anything but (periodic) metals
  | Electronic free energy        :       -1624.31566797 Ha      -44199.87819046 eV

  Derived energy quantities:
  | Kinetic energy                :        1633.53044248 Ha       44450.62496271 eV
  | Electrostatic energy          :       -3111.94819021 Ha      -84680.41874795 eV
  | Energy correction for multipole
  | error in Hartree potential    :           0.07962128 Ha           2.16660534 eV
  | Sum of eigenvalues per atom                           :       -2010.64398333 eV
  | Total energy (T->0) per atom                          :       -3683.32318254 eV  <-- do not rely on this value for anything but (periodic) metals
  | Electronic free energy per atom                       :       -3683.32318254 eV
  Evaluating new KS density.
  Integration grid: deviation in total charge (<rho> - N_e) =   0.000000E+00

  Self-consistency convergence accuracy:
  | Change of charge density      :  0.1059E+00
  | Change of sum of eigenvalues  : -0.4930E+01 eV
  | Change of total energy        :  0.7734E-01 eV


------------------------------------------------------------
  End self-consistency iteration #     4       :  max(cpu_time)    wall_clock(cpu1)
  | Time for this iteration                     :        0.104 s           0.104 s
  | Charge density update                       :        0.027 s           0.027 s
  | Density mixing                              :        0.005 s           0.005 s
  | Hartree multipole update                    :        0.001 s           0.001 s
  | Hartree multipole summation                 :        0.017 s           0.018 s
  | Integration                                 :        0.032 s           0.031 s
  | Solution of K.-S. eqns.                     :        0.020 s           0.020 s
  | Total energy evaluation                     :        0.000 s           0.000 s

  Partial memory accounting:
  | Current value for overall tracked memory usage:
  |   Minimum:        0.274 MB (on task 23)
  |   Maximum:        0.293 MB (on task  0)
  |   Average:        0.288 MB
  | Peak value for overall tracked memory usage:
  |   Minimum:        1.269 MB (on task  7 after allocating wave)
  |   Maximum:        1.358 MB (on task 16 after allocating wave)
  |   Average:        1.318 MB
  | Largest tracked array allocation so far:
  |   Minimum:        0.659 MB (gradient_basis_wave on task 10)
  |   Maximum:        0.717 MB (gradient_basis_wave on task 20)
  |   Average:        0.690 MB
  Note:  These values currently only include a subset of arrays which are explicitly tracked.
  The "true" memory usage will be greater.
------------------------------------------------------------

------------------------------------------------------------
          Begin self-consistency iteration #    5

  Date     :  20220517, Time     :  114929.894
------------------------------------------------------------
  Pulay mixing of updated and previous charge densities.
  Renormalizing the density to the exact electron count on the 3D integration grid.
  | Formal number of electrons (from input files) :     120.0000000000
  | Integrated number of electrons on 3D grid     :     120.0000000000
  | Charge integration error                      :      -0.0000000000
  | Normalization factor for density and gradient :       1.0000000000

  Evaluating partitioned Hartree potential by multipole expansion.
  | Original multipole sum: apparent total charge =  -0.145127E-13
  | Sum of charges compensated after spline to logarithmic grids =   0.165785E-03
  | Analytical far-field extrapolation by fixed multipoles:
  | Hartree multipole sum: apparent total charge =  -0.154474E-13
  Summing up the Hartree potential.
  Time summed over all CPUs for potential: real work        0.381 s, elapsed        0.398 s
  | RMS charge density error from multipole expansion :   0.238792E-01

  Integrating Hamiltonian matrix: batch-based integration.
  Time summed over all CPUs for integration: real work        0.680 s, elapsed        0.709 s

  Updating Kohn-Sham eigenvalues and eigenvectors using ELSI and the ELPA eigensolver.
  Starting ELPA eigensolver
  Finished transformation to standard eigenproblem
  | Time :     0.001 s
  Finished solving standard eigenproblem
  | Time :     0.003 s
  Finished back-transformation of eigenvectors
  | Time :     0.000 s

  Obtaining occupation numbers and chemical potential using ELSI.
  | Chemical potential (Fermi level):    -7.33005121 eV
  Highest occupied state (VBM) at     -8.35531287 eV
  | Occupation number:      2.00000000

  Lowest unoccupied state (CBM) at    -5.49639962 eV
  | Occupation number:      0.00000000

  Overall HOMO-LUMO gap:      2.85891326 eV.

  Total energy components:
  | Sum of eigenvalues            :        -886.70734564 Ha      -24128.53452105 eV
  | XC energy correction          :        -145.88625277 Ha       -3969.76691736 eV
  | XC potential correction       :         189.98929314 Ha        5169.87170649 eV
  | Free-atom electrostatic energy:        -776.20386448 Ha      -21121.58180663 eV
  | Hartree energy correction     :          -5.50728881 Ha        -149.86095326 eV
  | Entropy correction            :           0.00000000 Ha           0.00000000 eV
[...]
   Total forces(   7)            :  0.983335E+00  0.196098E+00 -0.828571E+00
  atom #    8
   Hellmann-Feynman              :  0.291058E+02  0.444626E+01 -0.963373E+02
   Ionic forces                  :  0.000000E+00  0.000000E+00  0.000000E+00
   Multipole                     :  0.903116E-01  0.368334E-02 -0.808761E+00
   Hartree pot. SCF incomplete   :  0.143102E-05  0.258393E-06 -0.245422E-05
   Pulay + GGA                   :  0.339246E+01  0.886465E+00  0.763992E+01
   ----------------------------------------------------------------
   Total forces(   8)            :  0.325886E+02  0.533641E+01 -0.895062E+02
  atom #    9
   Hellmann-Feynman              : -0.275814E+00  0.316340E+01  0.191508E+01
   Ionic forces                  :  0.000000E+00  0.000000E+00  0.000000E+00
   Multipole                     : -0.219705E+00  0.578078E+00  0.400183E+00
   Hartree pot. SCF incomplete   : -0.702471E-06  0.156104E-05  0.294091E-05
   Pulay + GGA                   :  0.112296E+01 -0.510170E+01 -0.411206E+01
   ----------------------------------------------------------------
   Total forces(   9)            :  0.627440E+00 -0.136021E+01 -0.179680E+01
  atom #   10
   Hellmann-Feynman              :  0.104046E+01 -0.292345E+01  0.203304E+01
   Ionic forces                  :  0.000000E+00  0.000000E+00  0.000000E+00
   Multipole                     :  0.352369E-01 -0.602130E+00  0.422474E+00
   Hartree pot. SCF incomplete   : -0.208638E-07 -0.160425E-05  0.299455E-05
   Pulay + GGA                   : -0.105116E+01  0.495648E+01 -0.430543E+01
   ----------------------------------------------------------------
   Total forces(  10)            :  0.245372E-01  0.143090E+01 -0.184991E+01
  atom #   11
   Hellmann-Feynman              : -0.168449E+01 -0.329118E+00  0.187360E+01
   Ionic forces                  :  0.000000E+00  0.000000E+00  0.000000E+00
   Multipole                     : -0.311081E+00 -0.582463E-01  0.467221E+00
   Hartree pot. SCF incomplete   : -0.876318E-06 -0.182888E-06  0.198266E-06
   Pulay + GGA                   :  0.449484E+01  0.862371E+00 -0.574375E+01
   ----------------------------------------------------------------
   Total forces(  11)            :  0.249927E+01  0.475006E+00 -0.340293E+01
  atom #   12
   Hellmann-Feynman              :  0.357867E+01  0.674058E+00 -0.515897E+01
   Ionic forces                  :  0.000000E+00  0.000000E+00  0.000000E+00
   Multipole                     :  0.760580E-01 -0.606504E-03 -0.887344E+00
   Hartree pot. SCF incomplete   :  0.556237E-06  0.158888E-06  0.204320E-05
   Pulay + GGA                   : -0.261860E+01 -0.446320E+00  0.625900E+01
   ----------------------------------------------------------------
   Total forces(  12)            :  0.103612E+01  0.227132E+00  0.212684E+00


  Self-consistency convergence accuracy:
  | Change of charge density      :  0.1572E-06
  | Change of sum of eigenvalues  : -0.1008E-04 eV
  | Change of total energy        :  0.5568E-10 eV
  | Change of forces              :  0.5809E-06 eV/A

  Writing Kohn-Sham eigenvalues.

  State    Occupation    Eigenvalue [Ha]    Eigenvalue [eV]
      1       2.00000         -55.689404        -1515.38578
      2       2.00000         -55.577136        -1512.33082
      3       2.00000         -55.477254        -1509.61289
      4       2.00000         -24.374291         -663.25820
      5       2.00000         -24.306247         -661.40662
      6       2.00000         -24.306233         -661.40626
      7       2.00000         -24.238442         -659.56156
      8       2.00000         -24.225331         -659.20479
      9       2.00000         -24.224837         -659.19137
     10       2.00000         -24.192025         -658.29850
     11       2.00000         -24.160731         -657.44695
     12       2.00000         -24.160726         -657.44680
     13       2.00000          -4.133623         -112.48159
     14       2.00000          -4.065058         -110.61586
     15       2.00000          -4.034344         -109.78008
     16       2.00000          -2.729042          -74.26101
     17       2.00000          -2.725508          -74.16484
     18       2.00000          -2.721284          -74.04989
     19       2.00000          -2.668569          -72.61546
     20       2.00000          -2.658147          -72.33186
     21       2.00000          -2.656696          -72.29238
     22       2.00000          -2.653039          -72.19286
     23       2.00000          -2.601937          -70.80230
     24       2.00000          -2.599654          -70.74018
     25       2.00000          -1.368064          -37.22691
     26       2.00000          -1.224624          -33.32372
     27       2.00000          -1.196134          -32.54847
     28       2.00000          -1.097728          -29.87070
     29       2.00000          -1.076481          -29.29254
     30       2.00000          -1.060094          -28.84662
     31       2.00000          -1.047858          -28.51367
     32       2.00000          -1.017062          -27.67567
     33       2.00000          -1.010663          -27.50154
     34       2.00000          -0.738548          -20.09691
     35       2.00000          -0.706158          -19.21555
     36       2.00000          -0.680036          -18.50472
     37       2.00000          -0.574665          -15.63743
     38       2.00000          -0.568639          -15.47345
     39       2.00000          -0.546811          -14.87949
     40       2.00000          -0.518662          -14.11351
     41       2.00000          -0.489477          -13.31935
     42       2.00000          -0.476119          -12.95585
     43       2.00000          -0.454654          -12.37177
     44       2.00000          -0.441562          -12.01552
     45       2.00000          -0.426218          -11.59798
     46       2.00000          -0.413364          -11.24822
     47       2.00000          -0.397710          -10.82224
     48       2.00000          -0.395523          -10.76272
     49       2.00000          -0.385130          -10.47992
     50       2.00000          -0.383733          -10.44192
     51       2.00000          -0.378271          -10.29327
     52       2.00000          -0.369987          -10.06787
     53       2.00000          -0.365026           -9.93286
     54       2.00000          -0.360029           -9.79690
     55       2.00000          -0.354878           -9.65672
     56       2.00000          -0.347019           -9.44286
     57       2.00000          -0.331736           -9.02700
     58       2.00000          -0.321913           -8.75969
     59       2.00000          -0.313236           -8.52359
     60       2.00000          -0.306748           -8.34703
     61       0.00000          -0.201330           -5.47846
     62       0.00000          -0.100390           -2.73175
     63       0.00000          -0.093367           -2.54065
     64       0.00000          -0.029303           -0.79738
     65       0.00000          -0.026372           -0.71761
     66       0.00000          -0.015102           -0.41095
     67       0.00000          -0.002830           -0.07701
     68       0.00000           0.051300            1.39594
     69       0.00000           0.082678            2.24979
     70       0.00000           0.093168            2.53523
     71       0.00000           0.106849            2.90750
     72       0.00000           0.113955            3.10088
     73       0.00000           0.139865            3.80593
     74       0.00000           0.141581            3.85262
     75       0.00000           0.150784            4.10304
     76       0.00000           0.169898            4.62315
     77       0.00000           0.179586            4.88678
     78       0.00000           0.186039            5.06237
     79       0.00000           0.192168            5.22917
     80       0.00000           0.194043            5.28018
     81       0.00000           0.207567            5.64819
     82       0.00000           0.232540            6.32773
     83       0.00000           0.239504            6.51724
     84       0.00000           0.250149            6.80689
     85       0.00000           0.258889            7.04472
     86       0.00000           0.265764            7.23181
     87       0.00000           0.275472            7.49599
     88       0.00000           0.298698            8.12798
     89       0.00000           0.311173            8.46745
     90       0.00000           0.315276            8.57910
     91       0.00000           0.333974            9.08790
     92       0.00000           0.346002            9.41518
     93       0.00000           0.358166            9.74619
     94       0.00000           0.365186            9.93723
     95       0.00000           0.370054           10.06968
     96       0.00000           0.387972           10.55727

  Highest occupied state (VBM) at     -8.34703383 eV
  | Occupation number:      2.00000000

  Lowest unoccupied state (CBM) at    -5.47846044 eV
  | Occupation number:      0.00000000

  Overall HOMO-LUMO gap:      2.86857340 eV.
  | Chemical Potential                          :    -7.32487956 eV

  Self-consistency cycle converged.


------------------------------------------------------------
  End self-consistency iteration #    15       :  max(cpu_time)    wall_clock(cpu1)
  | Time for this iteration                     :        0.269 s           0.268 s
  | Charge density & force component update     :        0.147 s           0.147 s
  | Density mixing                              :        0.005 s           0.003 s
  | Hartree multipole update                    :        0.001 s           0.002 s
  | Hartree multipole summation                 :        0.049 s           0.049 s
  | Hartree pot. SCF incomplete forces          :        0.032 s           0.032 s
  | Integration                                 :        0.030 s           0.030 s
  | Solution of K.-S. eqns.                     :        0.004 s           0.004 s
  | Total energy evaluation                     :        0.000 s           0.000 s

  Partial memory accounting:
  | Current value for overall tracked memory usage:
  |   Minimum:        0.274 MB (on task 23)
  |   Maximum:        0.293 MB (on task  0)
  |   Average:        0.289 MB
  | Peak value for overall tracked memory usage:
  |   Minimum:        2.737 MB (on task 10 after allocating hessian_basis_wave)
  |   Maximum:        2.917 MB (on task 20 after allocating hessian_basis_wave)
  |   Average:        2.839 MB
  | Largest tracked array allocation so far:
  |   Minimum:        1.317 MB (hessian_basis_wave on task 10)
  |   Maximum:        1.433 MB (hessian_basis_wave on task 20)
  |   Average:        1.381 MB
  Note:  These values currently only include a subset of arrays which are explicitly tracked.
  The "true" memory usage will be greater.
------------------------------------------------------------
  Removing unitary transformations (pure translations, rotations) from forces on atoms.
  Atomic forces before filtering:
  | Net force on center of mass :  -0.903492E-02 -0.143277E-02 -0.205872E-01 eV/A
  | Net torque on center of mass:  -0.210020E-01  0.362050E-01  0.111863E-01 eV
  Atomic forces after filtering:
  | Net force on center of mass :  -0.553059E-14 -0.196247E-14 -0.293478E-13 eV/A
  | Net torque on center of mass:   0.141613E-13 -0.829850E-13 -0.377634E-15 eV

  Energy and forces in a compact form:
  | Total energy uncorrected      :         -0.441998713500509E+05 eV
  | Total energy corrected        :         -0.441998713500509E+05 eV  <-- do not rely on this value for anything but (periodic) metals
  | Electronic free energy        :         -0.441998713500509E+05 eV
  Total atomic forces (unitary forces cleaned) [eV/Ang]:
  |    1          0.567848523511201E+01          0.112283471499011E+01         -0.539756463526025E+01
  |    2         -0.320661916994906E+02         -0.503397509132845E+01          0.991631636480156E+02
  |    3         -0.173473140538192E+01         -0.367608230462695E+00          0.443142305965634E+00
  |    4          0.107870739594511E+01          0.309129472069888E+00          0.394309879911031E+01
  |    5         -0.424461311220207E+01         -0.631738844896323E+01         -0.397694232338916E+00
  |    6         -0.647273296247093E+01          0.398329539466134E+01         -0.594021898422683E+00
  |    7          0.983384052046238E+00          0.195930325981705E+00         -0.827228908865241E+00
  |    8          0.325890617410769E+02          0.533596850752674E+01         -0.895035921725546E+02
  |    9          0.627184662600671E+00         -0.136123937802282E+01         -0.179400606890244E+01
  |   10          0.236011449757482E-01          0.142971723608891E+01         -0.184773347179886E+01
  |   11          0.249970712065809E+01          0.475752547971533E+00         -0.340303916292592E+01
  |   12          0.103813782713074E+01          0.227582949486969E+00          0.215475797977326E+00

  ------------------------------------ 
  Start decomposition of the XC Energy 
  ------------------------------------ 
  X and C from original XC functional choice 
  Hartree-Fock Energy :          0.000000000 Ha              0.000000000 eV
  X Energy            :       -140.897391654 Ha          -3834.013099334 eV
  C Energy            :         -4.990801704 Ha           -135.806624137 eV
  Total XC Energy     :       -145.888193358 Ha          -3969.819723471 eV
  ------------------------------------ 
  LDA X and C from self-consistent density 
  X Energy LDA        :       -133.513253931 Ha          -3633.080488564 eV
  C Energy LDA        :         -8.857591502 Ha           -241.027328099 eV
  ------------------------------------ 
  End decomposition of the XC Energy 
  ------------------------------------ 

------------------------------------------------------------

------------------------------------------------------------------------------
  Final output of selected total energy values:

  The following output summarizes some interesting total energy values
  at the end of a run (AFTER all relaxation, molecular dynamics, etc.).

  | Total energy of the DFT / Hartree-Fock s.c.f. calculation      :         -44199.871350051 eV
  | Final zero-broadening corrected energy (caution - metals only) :         -44199.871350051 eV
  | For reference only, the value of 1 Hartree used in FHI-aims is :             27.211384500 eV

  Before relying on these values, please be sure to understand exactly which
  total energy value is referred to by a given number. Different objects may
  all carry the same name 'total energy'. Definitions:

  Total energy of the DFT / Hartree-Fock s.c.f. calculation:
  | Note that this energy does not include ANY quantities calculated after the
  | s.c.f. cycle, in particular not ANY RPA, MP2, etc. many-body perturbation terms.

  Final zero-broadening corrected energy:
  | For metallic systems only, a broadening of the occupation numbers at the Fermi
  | level can be extrapolated back to zero broadening by an electron-gas inspired
  | formula. For all systems that are not real metals, this value can be
  | meaningless and should be avoided.

------------------------------------------------------------------------------
  Methods described in the following list of references were used in this FHI-aims run.
  If you publish the results, please make sure to cite these reference if they apply.
  FHI-aims is an academic code, and for our developers (often, Ph.D. students
  and postdocs), scientific credit in the community is essential.
  Thank you for helping us!

  For any use of FHI-aims, please cite:

    Volker Blum, Ralf Gehrke, Felix Hanke, Paula Havu, Ville Havu,
    Xinguo Ren, Karsten Reuter, and Matthias Scheffler
    'Ab initio molecular simulations with numeric atom-centered orbitals'
    Computer Physics Communications 180, 2175-2196 (2009)
    http://dx.doi.org/10.1016/j.cpc.2009.06.022


  The ELSI infrastructure was used in your run to solve the Kohn-Sham electronic structure.
  Please check out http://elsi-interchange.org to learn more.
  If scalability is important for your project, please acknowledge ELSI by citing:

    V. W-z. Yu, F. Corsetti, A. Garcia, W. P. Huhn, M. Jacquelin, W. Jia,
    B. Lange, L. Lin, J. Lu, W. Mi, A. Seifitokaldani, A. Vazquez-Mayagoitia,
    C. Yang, H. Yang, and V. Blum
    'ELSI: A unified software interface for Kohn-Sham electronic structure solvers'
    Computer Physics Communications 222, 267-285 (2018).
    http://dx.doi.org/10.1016/j.cpc.2017.09.007


  For the real-space grid partitioning and parallelization used in this calculation, please cite:

    Ville Havu, Volker Blum, Paula Havu, and Matthias Scheffler,
    'Efficient O(N) integration for all-electron electronic structure calculation'
    'using numerically tabulated basis functions'
    Journal of Computational Physics 228, 8367-8379 (2009).
    http://dx.doi.org/10.1016/j.jcp.2009.08.008

  Of course, there are many other important community references, e.g., those cited in the
  above references. Our list is limited to references that describe implementations in the
  FHI-aims code. The reason is purely practical (length of this list) - please credit others as well.

------------------------------------------------------------
          Leaving FHI-aims.
          Date     :  20220517, Time     :  114931.243

          Computational steps:
          | Number of self-consistency cycles          :           15
          | Number of SCF (re)initializations          :            1

          Detailed time accounting                     :  max(cpu_time)    wall_clock(cpu1)
          | Total time                                  :        2.082 s           2.156 s
          | Preparation time                            :        0.183 s           0.184 s
          | Boundary condition initalization            :        0.000 s           0.001 s
          | Grid partitioning                           :        0.042 s           0.042 s
          | Preloading free-atom quantities on grid     :        0.016 s           0.016 s
          | Free-atom superposition energy              :        0.005 s           0.005 s
          | Total time for integrations                 :        0.498 s           0.496 s
          | Total time for solution of K.-S. equations  :        0.122 s           0.124 s
          | Total time for density & force components   :        0.678 s           0.677 s
          | Total time for mixing                       :        0.067 s           0.037 s
          | Total time for Hartree multipole update     :        0.027 s           0.028 s
          | Total time for Hartree multipole sum        :        0.320 s           0.319 s
          | Total time for total energy evaluation      :        0.003 s           0.002 s
          | Total time NSC force correction             :        0.063 s           0.063 s
          | Total time for scaled ZORA corrections      :        0.000 s           0.000 s

          Partial memory accounting:
          | Residual value for overall tracked memory usage across tasks:     0.000000 MB (should be 0.000000 MB)
          | Peak values for overall tracked memory usage:
          |   Minimum:        2.737 MB (on task 10 after allocating hessian_basis_wave)
          |   Maximum:        2.917 MB (on task 20 after allocating hessian_basis_wave)
          |   Average:        2.839 MB
          | Largest tracked array allocation:
          |   Minimum:        1.317 MB (hessian_basis_wave on task 10)
          |   Maximum:        1.433 MB (hessian_basis_wave on task 20)
          |   Average:        1.381 MB
          Note:  These values currently only include a subset of arrays which are explicitly tracked.
          The "true" memory usage will be greater.

          Have a nice day.
------------------------------------------------------------
