********************************************************************************
*                       GENERAL UTILITY LATTICE PROGRAM                        *
*                                 Julian Gale                                  *
*                       Curtin Institute for Computation                       *
*                           Department of Chemistry                            *
*                    Curtin University, Western Australia                      *
********************************************************************************
* Version = 5.1.1 * Last modified =  24th November 2018                        *
********************************************************************************
*  optimise     - perform optimisation run                                     *
*  conp         - constant pressure calculation                                *
*  shell        - only shells and radii to be optimised                        *
*  phonon       - calculate phonons for final geometry                         *
*  eigenvectors - output phonon eigenvectors                                   *
********************************************************************************

  Job Started  at 14:38.57 25th May        2022                               

  Number of CPUs =     1

  Host name      = login03                                 


  Total number of configurations input =      1

********************************************************************************
*  Input for Configuration =   1                                               *
********************************************************************************

  Formula = Al3F9                                                       

  Number of irreducible atoms/shells =      21


  Total number atoms/shells =      21

  Dimensionality = 0               :  Cluster


  Charge on cluster =  -0.000000


  Initial cluster dipoles : x =     -0.029129 e.Angs
                            y =     -0.089039 e.Angs
                            z =      0.207809 e.Angs

  Temperature of configuration =  0.000     K 

  Symmetry number =      1

  Cartesian coordinates of cluster :

--------------------------------------------------------------------------------
   No.  Atomic       x           y          z         Charge      Occupancy
        Label      (Angs)      (Angs)     (Angs)        (e)         (Frac)  
--------------------------------------------------------------------------------
      1 Al    c      0.3782     -0.7663      1.5592     3.00000    1.000000    
      2 Al    c      2.1061     -1.7180     -0.4480     3.00000    1.000000    
      3 Al    c     -0.6809     -1.7538     -0.8540     3.00000    1.000000    
      4 F     c      3.3110     -0.7224     -1.0185     0.59000    1.000000    
      5 F     c     -1.6976     -0.7867     -1.7482     0.59000    1.000000    
      6 F     c      2.6994     -3.2852     -0.5042     0.59000    1.000000    
      7 F     c     -1.1938     -3.3352     -1.0714     0.59000    1.000000    
      8 F     c      1.7724     -1.3621      1.0522     0.59000    1.000000    
      9 F     c      0.8040     -1.5940     -1.2907     0.59000    1.000000    
     10 F     c      0.1465     -1.0595      3.1755     0.59000    1.000000    
     11 F     c      0.3956      0.9147      1.2916     0.59000    1.000000    
     12 F     c     -0.7981     -1.3951      0.6777     0.59000    1.000000    
     13 F     s      3.3110 *   -0.7224 *   -1.0185 *  -1.59000    1.000000    
     14 F     s     -1.6976 *   -0.7867 *   -1.7482 *  -1.59000    1.000000    
     15 F     s      2.6994 *   -3.2852 *   -0.5042 *  -1.59000    1.000000    
     16 F     s     -1.1938 *   -3.3352 *   -1.0714 *  -1.59000    1.000000    
     17 F     s      1.7724 *   -1.3621 *    1.0522 *  -1.59000    1.000000    
     18 F     s      0.8040 *   -1.5940 *   -1.2907 *  -1.59000    1.000000    
     19 F     s      0.1465 *   -1.0595 *    3.1755 *  -1.59000    1.000000    
     20 F     s      0.3956 *    0.9147 *    1.2916 *  -1.59000    1.000000    
     21 F     s     -0.7981 *   -1.3951 *    0.6777 *  -1.59000    1.000000    
--------------------------------------------------------------------------------


  Brillouin zone sampling points :

--------------------------------------------------------------------------------
  Point number          x          y          z            Weight
--------------------------------------------------------------------------------
        1           0.000000   0.000000   0.000000     1.00000000
--------------------------------------------------------------------------------


********************************************************************************
*  General input information                                                   *
********************************************************************************

  Species output for all configurations : 

--------------------------------------------------------------------------------
  Species    Type    Atomic    Atomic    Charge       Radii (Angs)     Library
                     Number     Mass       (e)     Cova   Ionic  VDW   Symbol
--------------------------------------------------------------------------------
    Al       Core       13      26.98   3.000000   1.350  0.000  2.050          
    F        Core        9      19.00   0.590000   0.710  0.000  1.300          
    F        Shell       9       0.00  -1.590000   0.710  0.000  1.300          
--------------------------------------------------------------------------------


  Accuracy factor for short range sums = 12.000

  Time limit = Infinity

  Maximum range for interatomic potentials =    100000.000000 Angstroms

  General interatomic potentials :

--------------------------------------------------------------------------------
Atom  Types   Potential      Parameter       Value         Units   Cutoffs(Ang)
  1     2                                                            Min /  Max 
--------------------------------------------------------------------------------
Al   c F    s Buckingham    Buckingham A     3760.0008    eV        0.000 10.000
                            Buckingham rho  0.22200000    Ang       
                            Buckingham C     0.0000000    eV*Ang^6  
--------------------------------------------------------------------------------
F    s F    s Buck 4 range  Buck4 A          1127.7000    eV        0.000 12.000
                            Buck4 rho       0.27530000    Ang       
                            Buck4 C          15.830000    eV*Ang^6  
                            Buck4 minimum    2.7900000    Ang       
--------------------------------------------------------------------------------
F    c F    s Spring (c-s)  Spring k 2       20.770000    eV*Ang^-2 0.000  0.800
                            Spring k 4       0.0000000    eV*Ang^-4 
--------------------------------------------------------------------------------

********************************************************************************
*  Output for configuration   1                                                *
********************************************************************************


  Components of energy : 

--------------------------------------------------------------------------------
  Interatomic potentials     =          30.32909017 eV    
  Monopole - monopole (real) =        -201.58189058 eV    
--------------------------------------------------------------------------------
  Total lattice energy       =        -171.25280041 eV    
--------------------------------------------------------------------------------
  Total lattice energy       =          -16523.2774 kJ/mol
--------------------------------------------------------------------------------


  Number of variables =       27

  Maximum number of calculations  =          2000
  Maximum Hessian update interval =            10
  Maximum step size               =   1.000000000
  Maximum parameter tolerance     =   0.000001000
  Maximum function  tolerance     =   0.000010000
  Maximum gradient  tolerance     =   0.000000010
  Maximum gradient  component     =   0.010000000

  Symmetry not applied to optimisation

  Newton-Raphson optimiser to be used

  BFGS hessian update to be used

  Lower half triangular hessian to be used

  Minimiser to switch to RFO
  When gradient norm is less than     0.010000

  Shell only optimisation

  Start of cluster optimisation :

  Cycle:      0 Energy:      -171.252800  Gnorm:      1.124937  CPU:    0.004
  ** Hessian calculated **
  Cycle:      1 Energy:      -178.907514  Gnorm:      0.148139  CPU:    0.006
  Cycle:      2 Energy:      -179.029340  Gnorm:      0.049933  CPU:    0.007
  Cycle:      3 Energy:      -179.041651  Gnorm:      0.014379  CPU:    0.009
  Cycle:      4 Energy:      -179.042742  Gnorm:      0.001540  CPU:    0.010
  ** Hessian has required structure
  Cycle:      5 Energy:      -179.042754  Gnorm:      0.000440  CPU:    0.012
  ** Hessian has required structure
  Cycle:      6 Energy:      -179.042755  Gnorm:      0.000245  CPU:    0.013
  ** Hessian has required structure
  Cycle:      7 Energy:      -179.042755  Gnorm:      0.000173  CPU:    0.014
  ** Hessian has required structure
  Cycle:      8 Energy:      -179.042755  Gnorm:      0.000089  CPU:    0.016
  ** Hessian has required structure
  Cycle:      9 Energy:      -179.042755  Gnorm:      0.000046  CPU:    0.017
  ** Hessian has required structure
  Cycle:     10 Energy:      -179.042755  Gnorm:      0.000019  CPU:    0.019
  ** Hessian has required structure
  Cycle:     11 Energy:      -179.042755  Gnorm:      0.000000  CPU:    0.021
  ** Hessian has required structure
  Cycle:     12 Energy:      -179.042755  Gnorm:      0.000000  CPU:    0.022
  ** Hessian has required structure
  Cycle:     13 Energy:      -179.042755  Gnorm:      0.000000  CPU:    0.023
  ** Hessian has required structure
  Cycle:     14 Energy:      -179.042755  Gnorm:      0.000000  CPU:    0.025
  ** Hessian calculated **

  XYZ File written as 002/4/sp_mod_90/sp_mod_90_eig.xyz



  **** Optimisation achieved ****


  Final energy =    -179.04275520 eV
  Final Gnorm  =       0.00000011

  Components of energy : 

--------------------------------------------------------------------------------
  Interatomic potentials     =          52.26640958 eV    
  Monopole - monopole (real) =        -231.30916477 eV    
--------------------------------------------------------------------------------
  Total lattice energy       =        -179.04275520 eV    
--------------------------------------------------------------------------------
  Total lattice energy       =          -17274.8890 kJ/mol
--------------------------------------------------------------------------------

  Final cartesian coordinates of atoms :

--------------------------------------------------------------------------------
   No.  Atomic        x           y          z          Radius
        Label       (Angs)      (Angs)     (Angs)       (Angs) 
--------------------------------------------------------------------------------
     1  Al    c     0.378170   -0.766288    1.559210    0.000000
     2  Al    c     2.106144   -1.718025   -0.447971    0.000000
     3  Al    c    -0.680930   -1.753819   -0.853997    0.000000
     4  F     c     3.310988   -0.722382   -1.018520    0.000000
     5  F     c    -1.697596   -0.786705   -1.748180    0.000000
     6  F     c     2.699360   -3.285169   -0.504241    0.000000
     7  F     c    -1.193840   -3.335168   -1.071409    0.000000
     8  F     c     1.772411   -1.362077    1.052191    0.000000
     9  F     c     0.803987   -1.593978   -1.290749    0.000000
    10  F     c     0.146466   -1.059472    3.175531    0.000000
    11  F     c     0.395571    0.914681    1.291573    0.000000
    12  F     c    -0.798065   -1.395089    0.677719    0.000000
    13  F     s     3.165997   -0.778664   -0.955616    0.000000
    14  F     s    -1.575206   -0.839554   -1.646323    0.000000
    15  F     s     2.585406   -3.149129   -0.482958    0.000000
    16  F     s    -1.094150   -3.196385   -1.019003    0.000000
    17  F     s     1.662845   -1.369101    0.977584    0.000000
    18  F     s     0.787772   -1.569587   -1.181596    0.000000
    19  F     s     0.170136   -1.070201    3.013997    0.000000
    20  F     s     0.403956    0.718500    1.251311    0.000000
    21  F     s    -0.671628   -1.399082    0.637494    0.000000
--------------------------------------------------------------------------------


  Final Cartesian derivatives :

--------------------------------------------------------------------------------
   No.  Atomic          x             y             z           Radius
        Label       (eV/Angs)     (eV/Angs)    (eV/Angs)      (eV/Angs)
--------------------------------------------------------------------------------
      1 Al    c       0.000000      0.000000      0.000000      0.000000
      2 Al    c       0.000000      0.000000      0.000000      0.000000
      3 Al    c       0.000000      0.000000      0.000000      0.000000
      4 F     c       0.000000      0.000000      0.000000      0.000000
      5 F     c       0.000000      0.000000      0.000000      0.000000
      6 F     c       0.000000      0.000000      0.000000      0.000000
      7 F     c       0.000000      0.000000      0.000000      0.000000
      8 F     c       0.000000      0.000000      0.000000      0.000000
      9 F     c       0.000000      0.000000      0.000000      0.000000
     10 F     c       0.000000      0.000000      0.000000      0.000000
     11 F     c       0.000000      0.000000      0.000000      0.000000
     12 F     c       0.000000      0.000000      0.000000      0.000000
     13 F     s       0.000000      0.000001     -0.000001      0.000000
     14 F     s       0.000000      0.000001     -0.000001      0.000000
     15 F     s       0.000001     -0.000000     -0.000000      0.000000
     16 F     s      -0.000001     -0.000000     -0.000001      0.000000
     17 F     s      -0.000000      0.000001     -0.000001      0.000000
     18 F     s       0.000000      0.000001     -0.000000      0.000000
     19 F     s      -0.000000      0.000000      0.000001      0.000000
     20 F     s      -0.000000      0.000000      0.000000      0.000000
     21 F     s       0.000001      0.000001     -0.000001      0.000000
--------------------------------------------------------------------------------
  Maximum abs         0.000001      0.000001      0.000001      0.000000
--------------------------------------------------------------------------------


  Born effective charge tensors : 

-------------------------------------------------------------------------------
  Atom             x           y             z
-------------------------------------------------------------------------------
    1 Al    x       0.6641     -0.0315     -0.0469
            y      -0.0302      0.5301      0.2185
            z      -0.0470      0.2272      0.9596
-------------------------------------------------------------------------------
    2 Al    x       0.9937     -0.0969     -0.1359
            y      -0.0927      0.5044      0.1218
            z      -0.1749      0.1148      0.6453
-------------------------------------------------------------------------------
    3 Al    x       0.8773      0.0702      0.2020
            y       0.0643      0.5086      0.1492
            z       0.2411      0.1447      0.7576
-------------------------------------------------------------------------------
    4 F     x      -0.2090      0.3082     -0.1400
            y       0.2991     -0.2715     -0.1372
            z      -0.1562     -0.1531     -0.4722
-------------------------------------------------------------------------------
    5 F     x      -0.2988     -0.2516      0.1942
            y      -0.2475     -0.2857     -0.2123
            z       0.2108     -0.2297     -0.3682
-------------------------------------------------------------------------------
    6 F     x      -0.5263     -0.2100     -0.0092
            y      -0.1717      0.0657      0.0136
            z       0.0058      0.0156     -0.5261
-------------------------------------------------------------------------------
    7 F     x      -0.5358      0.1817      0.0066
            y       0.1455      0.0748      0.0600
            z      -0.0086      0.0725     -0.5257
-------------------------------------------------------------------------------
    8 F     x      -0.0408     -0.1449     -0.1814
            y      -0.1474     -0.2050      0.0911
            z      -0.1858      0.0730      0.0586
-------------------------------------------------------------------------------
    9 F     x       0.2828      0.0231      0.0732
            y       0.0206     -0.2809     -0.0910
            z       0.0734     -0.1082     -0.2007
-------------------------------------------------------------------------------
   10 F     x      -0.5369      0.0169     -0.0940
            y       0.0192     -0.5004     -0.1364
            z      -0.0942     -0.1205      0.1069
-------------------------------------------------------------------------------
   11 F     x      -0.5312      0.0146      0.0108
            y       0.0232      0.0580     -0.2111
            z       0.0101     -0.1522     -0.5851
-------------------------------------------------------------------------------
   12 F     x      -0.1391      0.1202      0.1206
            y       0.1174     -0.1982      0.1338
            z       0.1254      0.1158      0.1501
-------------------------------------------------------------------------------




  Moment of inertia tensor (10^-46 x kgm^2): 

-------------------------------------------------------------------------------
                x           y           z           Principal axis system
-------------------------------------------------------------------------------
       x        125.34        2.92       -1.70          125.128390
       y          2.92      172.52      -24.19          126.291673
       z         -1.70      -24.19      138.92          185.359887
-------------------------------------------------------------------------------
  Centre of mass (Ang) =     0.603325    -1.405996     0.070075
-------------------------------------------------------------------------------


  Vibrational Frequency Calculation : 

--------------------------------------------------------------------------------

  Frequencies (cm-1) and Eigenvectors : 

  Frequency    -290.3519 -275.3265 -248.7265 -219.5049 -204.7048 -198.1781
  IR Intensity    0.0052    0.0004    0.0043    0.0000    0.0003    0.0029
     in X         0.0000    0.0004    0.0000    0.0000    0.0003    0.0000
     in Y         0.0036    0.0000    0.0030    0.0000    0.0000    0.0022
     in Z         0.0016    0.0000    0.0013    0.0000    0.0000    0.0006
  Raman Intsty    0.0049    0.0000    0.0094    0.0000    0.0000    0.0001

     1 x       0.013346 -0.021487 -0.004465  0.412594 -0.027079 -0.011339
     1 y       0.002450 -0.000277 -0.068899  0.005299 -0.000344  0.400347
     1 z      -0.091829 -0.003130  0.036723  0.060108 -0.003946  0.042540
     2 x      -0.010123 -0.041754  0.006722 -0.155919 -0.019097 -0.173452
     2 y      -0.129735 -0.127259 -0.116415 -0.161307 -0.488505 -0.144809
     2 z       0.008539  0.066115 -0.019075 -0.399982  0.167915 -0.054914
     3 x       0.010526 -0.024346  0.001929 -0.267545  0.017320  0.185495
     3 y      -0.129469  0.126410 -0.116478  0.155868  0.488478 -0.140207
     3 z       0.011547 -0.075745 -0.019773  0.338291 -0.168173 -0.002621
     4 x       0.050358 -0.032496  0.005151 -0.094630 -0.162628 -0.017784
     4 y      -0.122005 -0.150360 -0.140233 -0.009921 -0.128655 -0.099695
     4 z       0.052220 -0.091513 -0.126833 -0.063966  0.210364  0.199203
     5 x      -0.060078 -0.061021  0.034772 -0.109164 -0.099042 -0.037276
     5 y      -0.123423  0.149159 -0.139854  0.007303  0.125294 -0.099946
     5 z       0.036132  0.077888 -0.122519  0.034278 -0.248483  0.196366
     6 x      -0.139996 -0.054515 -0.049360  0.051269  0.163433 -0.050207
     6 y      -0.124180 -0.093067 -0.103570 -0.062271 -0.283760 -0.081469
     6 z      -0.107632  0.122715  0.145703 -0.073592 -0.054935  0.102009
     7 x       0.167960 -0.019566  0.008334  0.026563  0.133779  0.021051
     7 y      -0.120225  0.092115 -0.102830  0.063270  0.287575 -0.080558
     7 z      -0.062769 -0.133507  0.154109  0.084931  0.098236  0.112388
     8 x       0.030320  0.226092  0.170651  0.181730 -0.077916 -0.246664
     8 y      -0.055126  0.580405  0.543044 -0.090844 -0.099660 -0.036721
     8 z       0.026390 -0.042999 -0.139912 -0.273902  0.040982 -0.123860
     9 x      -0.040101  0.018443 -0.002596 -0.306960  0.123077  0.078882
     9 y       0.877290  0.000237  0.008596 -0.003942  0.001580  0.041469
     9 z       0.197922  0.002687  0.017060 -0.044719  0.017927 -0.545125
    10 x       0.007887  0.041885  0.005208  0.160844 -0.086456  0.005809
    10 y       0.023880  0.000537 -0.247739  0.002065 -0.001111 -0.065010
    10 z      -0.056242  0.006102 -0.013908  0.023432 -0.012596 -0.034139
    11 x       0.002458 -0.233401 -0.039898  0.009598  0.105603 -0.027239
    11 y       0.005716 -0.002998  0.003120  0.000124  0.001360  0.314552
    11 z      -0.017376 -0.034002  0.273600  0.001399  0.015386  0.159240
    12 x      -0.035192  0.218951 -0.137251  0.093702 -0.065465  0.272591
    12 y      -0.055968 -0.574686  0.539093  0.094382  0.097818 -0.030055
    12 z       0.016846  0.107833 -0.184769  0.314026 -0.061871 -0.048214


  Frequency    -188.3891 -164.6620 -154.1303 -148.9859 -115.1944 -103.5378
  IR Intensity    0.0028    0.0007    0.0055    0.0018    0.0000    0.0427
     in X         0.0000    0.0007    0.0001    0.0018    0.0000    0.0000
     in Y         0.0026    0.0000    0.0023    0.0000    0.0000    0.0425
     in Z         0.0002    0.0000    0.0032    0.0000    0.0000    0.0003
  Raman Intsty    0.0083    0.0000    0.0303    0.0000    0.0000    0.0099

     1 x      -0.034862  0.264513  0.000341  0.027876 -0.032150  0.007070
     1 y      -0.400897  0.003397  0.060590  0.000358 -0.000412  0.185329
     1 z       0.274638  0.038535 -0.007685  0.004061 -0.004683 -0.064867
     2 x      -0.080183 -0.140499 -0.046874  0.038247  0.027501  0.069046
     2 y       0.240542  0.048743  0.015862 -0.027074 -0.044307  0.230631
     2 z      -0.129394  0.107123  0.051870 -0.050642 -0.008219 -0.004372
     3 x       0.107687 -0.102831  0.029715  0.021517  0.022890 -0.070708
     3 y       0.242958 -0.051867  0.016847  0.027842  0.044957  0.228836
     3 z      -0.102026 -0.142571  0.063029  0.059349  0.015560 -0.024733
     4 x       0.208304 -0.101727  0.128395  0.340981 -0.102478  0.199399
     4 y      -0.005307 -0.047301 -0.261555 -0.361394 -0.132754 -0.165156
     4 z       0.140467 -0.057332 -0.093694  0.023603 -0.437320 -0.306570
     5 x      -0.239516 -0.115011 -0.089711  0.324346 -0.226276 -0.099440
     5 y      -0.011056  0.044515 -0.264353  0.369939  0.128529 -0.168995
     5 z       0.075224  0.025756 -0.125468  0.073322  0.389422 -0.350110
     6 x      -0.226402 -0.154093 -0.230478 -0.422094  0.145254 -0.233737
     6 y       0.116314  0.023842 -0.067557 -0.194413 -0.005636  0.070268
     6 z      -0.071247 -0.076304  0.224861  0.056777  0.443577  0.133473
     7 x       0.234320 -0.168805  0.158380 -0.393111  0.265568  0.184104
     7 y       0.122233 -0.027989 -0.062562  0.183944  0.010913  0.075633
     7 z      -0.004127  0.029266  0.281510 -0.175539 -0.383727  0.194352
     8 x       0.005459  0.367725  0.049267 -0.061552 -0.103057 -0.092693
     8 y       0.000685 -0.078155  0.075748 -0.107110 -0.108522 -0.196929
     8 z      -0.076616  0.284997  0.056550 -0.055990 -0.031846  0.065587
     9 x       0.051155 -0.044164  0.015966 -0.000064  0.020493 -0.024192
     9 y       0.113872 -0.000567 -0.105026 -0.000001  0.000263 -0.049707
     9 z      -0.361174 -0.006435 -0.100333 -0.000008  0.002986  0.170441
    10 x      -0.032578 -0.498893 -0.018576  0.059234 -0.137145  0.024129
    10 y      -0.122920 -0.006405  0.532220  0.000759 -0.001764 -0.333840
    10 z       0.234457 -0.072679  0.080609  0.008629 -0.019980 -0.136184
    11 x      -0.008581  0.258069  0.072042  0.125464  0.226459 -0.039070
    11 y      -0.313082  0.003314 -0.032372  0.001612  0.002910  0.195136
    11 z       0.086508  0.037594 -0.491664  0.018279  0.032993  0.250967
    12 x       0.016607  0.431657 -0.065244 -0.077639 -0.110553  0.075056
    12 y       0.000829  0.088422  0.074278  0.105322  0.105776 -0.194775
    12 z      -0.074992 -0.168541  0.039870  0.035712  0.000728  0.090024


  Frequency     -80.0434  -56.2052   -0.0000   -0.0000    0.0000   59.0864
  IR Intensity    0.0035    0.0000    0.0000    0.0000    0.0000    0.0000
     in X         0.0000    0.0000    0.0000    0.0000    0.0000    0.0000
     in Y         0.0029    0.0000    0.0000    0.0000    0.0000    0.0000
     in Z         0.0006    0.0000    0.0000    0.0000    0.0000    0.0000
  Raman Intsty    0.0001    0.0000    0.0000    0.0000    0.0000    0.0000

     1 x       0.018880  0.017300 -0.154094 -0.007932  0.288585  0.141342
     1 y       0.167314  0.000223  0.256745 -0.153344  0.132878  0.001815
     1 z      -0.144345  0.002520 -0.132008 -0.288984 -0.078431  0.020591
     2 x       0.061370 -0.039085 -0.154094 -0.007932  0.288585 -0.083731
     2 y       0.006828 -0.018459  0.256745 -0.153344  0.132878  0.003583
     2 z       0.053622  0.157132 -0.132008 -0.288984 -0.078431  0.014282
     3 x      -0.074269  0.006911 -0.154094 -0.007932  0.288585 -0.076060
     3 y       0.005086  0.018045  0.256745 -0.153344  0.132878 -0.005635
     3 z       0.033864 -0.161819 -0.132008 -0.288984 -0.078431 -0.037561
     4 x       0.229183 -0.194804 -0.129313 -0.006657  0.242175  0.032694
     4 y      -0.044723 -0.046199  0.215456 -0.128684  0.111509  0.022634
     4 z       0.336313 -0.270008 -0.110778 -0.242510 -0.065818  0.263732
     5 x      -0.314394 -0.264834 -0.129313 -0.006657  0.242175  0.107129
     5 y      -0.051704  0.040296  0.215456 -0.128684  0.111509 -0.020838
     5 z       0.257119  0.203053 -0.110778 -0.242510 -0.065818 -0.243364
     6 x      -0.221531 -0.130713 -0.129313 -0.006657  0.242175  0.002584
     6 y      -0.082003 -0.043668  0.215456 -0.128684  0.111509  0.013975
     6 z      -0.356603 -0.136703 -0.110778 -0.242510 -0.065818  0.428435
     7 x       0.316043 -0.165329 -0.129313 -0.006657  0.242175  0.125042
     7 y      -0.075100  0.039865  0.215456 -0.128684  0.111509 -0.012335
     7 z      -0.278292  0.093570 -0.110778 -0.242510 -0.065818 -0.409841
     8 x       0.078039  0.070387 -0.129313 -0.006657  0.242175  0.134154
     8 y       0.123279 -0.149587  0.215456 -0.128684  0.111509 -0.197059
     8 z       0.048158  0.226980 -0.110778 -0.242510 -0.065818  0.137014
     9 x      -0.024531  0.066685 -0.129313 -0.006657  0.242175 -0.058682
     9 y      -0.321857  0.000855  0.215456 -0.128684  0.111509 -0.000753
     9 z       0.196758  0.009715 -0.110778 -0.242510 -0.065818 -0.008549
    10 x       0.021695  0.668621 -0.129313 -0.006657  0.242175  0.056024
    10 y      -0.034248  0.008587  0.215456 -0.128684  0.111509  0.000719
    10 z      -0.145932  0.097405 -0.110778 -0.242510 -0.065818  0.008162
    11 x      -0.000023 -0.160713 -0.129313 -0.006657  0.242175 -0.539626
    11 y       0.151682 -0.002064  0.215456 -0.128684  0.111509 -0.006931
    11 z      -0.013209 -0.023413 -0.110778 -0.242510 -0.065818 -0.078614
    12 x      -0.091609  0.128425 -0.129313 -0.006657  0.242175  0.162665
    12 y       0.121099  0.152142  0.215456 -0.128684  0.111509  0.200871
    12 z       0.023444 -0.198017 -0.110778 -0.242510 -0.065818 -0.093773


  Frequency     105.7324  113.8503  114.8885  149.9492  150.4699  209.5181
  IR Intensity    0.0240    0.0105    0.0041    0.1161    0.1407    0.0100
     in X         0.0004    0.0103    0.0000    0.0023    0.1377    0.0002
     in Y         0.0015    0.0000    0.0038    0.0137    0.0000    0.0006
     in Z         0.0221    0.0002    0.0003    0.1001    0.0029    0.0092
  Raman Intsty    0.0270    0.0000    0.1484    0.0052    0.0000    0.1822

     1 x      -0.016736  0.062118  0.013088  0.037372 -0.163497 -0.043576
     1 y       0.001848  0.000797  0.046840 -0.134706 -0.002095  0.068537
     1 z       0.114715  0.009051 -0.093967 -0.244691 -0.023810  0.293078
     2 x      -0.081262  0.093660 -0.059957  0.116668 -0.320518  0.095224
     2 y      -0.036815 -0.019917  0.036094 -0.027308  0.056532 -0.025133
     2 z       0.106594 -0.001839  0.052394 -0.205779  0.021415 -0.027036
     3 x       0.048377  0.088711  0.041594 -0.052414 -0.299561 -0.082892
     3 y      -0.035151  0.022257  0.037399 -0.029484 -0.064494 -0.027421
     3 z       0.125480  0.028405  0.067189 -0.230415 -0.111734 -0.052985
     4 x      -0.345346  0.161082 -0.175883 -0.016711  0.109751 -0.018584
     4 y       0.104119 -0.238881  0.201367  0.292693 -0.360595  0.095093
     4 z      -0.251010 -0.225245  0.080877  0.133481  0.120841 -0.030151
     5 x       0.399869  0.084072  0.140385 -0.029418  0.130561  0.024015
     5 y       0.113689  0.242025  0.205436  0.292554  0.363663  0.095640
     5 z      -0.142448  0.260957  0.126958  0.131624 -0.085841 -0.023946
     6 x      -0.348864  0.201241 -0.195064 -0.232886  0.264925 -0.104473
     6 y      -0.122148  0.034763 -0.025160 -0.164840  0.253211 -0.092927
     6 z      -0.272170 -0.256518  0.157840  0.286882 -0.026682 -0.023673
     7 x       0.414964  0.120510  0.142504  0.145457  0.252575  0.109187
     7 y      -0.112338 -0.030631 -0.020826 -0.159997 -0.246554 -0.090183
     7 z      -0.160894  0.303385  0.207025  0.342003  0.102051  0.007454
     8 x      -0.004818 -0.006796  0.128427  0.052113 -0.013473 -0.395192
     8 y      -0.001792 -0.113905  0.021349 -0.105972  0.038705  0.077692
     8 z       0.104681 -0.004391  0.131657 -0.162523  0.119847 -0.301345
     9 x       0.021079  0.074483  0.018686 -0.017464 -0.241102 -0.054643
     9 y      -0.082826  0.000956  0.043289 -0.057685 -0.003094 -0.026718
     9 z      -0.137393  0.010853 -0.132076  0.124906 -0.035129  0.377438
    10 x      -0.021038 -0.325617  0.034319  0.017617  0.205979 -0.031855
    10 y       0.165528 -0.004174 -0.551235  0.273947  0.002637 -0.133724
    10 z       0.129816 -0.047434 -0.187009 -0.145033  0.030012  0.230451
    11 x      -0.031517 -0.589693  0.074054 -0.038908  0.202270  0.046126
    11 y       0.021378 -0.007573 -0.035245 -0.035849  0.002599 -0.032628
    11 z       0.214459 -0.085901 -0.505270  0.270282  0.029459 -0.313742
    12 x      -0.025201 -0.010624 -0.161143 -0.000902  0.022252  0.462650
    12 y      -0.002054  0.113681  0.017633 -0.106655 -0.038586  0.088709
    12 z       0.101712  0.001850  0.089472 -0.170254 -0.118556 -0.176373


  Frequency     541.8544  586.8866  597.3024  782.0132  788.5092  795.9652
  IR Intensity    0.0000    0.0047    0.0076    0.0014    0.0001    0.0025
     in X         0.0000    0.0001    0.0074    0.0000    0.0001    0.0000
     in Y         0.0000    0.0004    0.0000    0.0003    0.0000    0.0024
     in Z         0.0000    0.0042    0.0002    0.0011    0.0000    0.0000
  Raman Intsty    3.7679    0.0000    0.0000    0.0005    0.0000    0.0021

     1 x       0.018698  0.005501 -0.275124  0.016862 -0.046030 -0.016571
     1 y      -0.079509 -0.010713 -0.003533  0.590690 -0.000589  0.099193
     1 z      -0.121339 -0.036811 -0.040081 -0.167812 -0.006705  0.105018
     2 x      -0.127017  0.104154 -0.041462 -0.067869  0.097640 -0.081049
     2 y       0.031738  0.020535 -0.012010 -0.101445  0.434341  0.408285
     2 z       0.054178  0.207028 -0.139771 -0.179620 -0.051448 -0.227619
     3 x       0.105444 -0.159365 -0.079899  0.118817  0.089801  0.132317
     3 y       0.034724  0.017150  0.010451 -0.099046 -0.431929  0.411030
     3 z       0.088043  0.168638  0.122092 -0.152424  0.078752 -0.196539
     4 x      -0.278182  0.188176  0.253814  0.036871 -0.273462 -0.201061
     4 y      -0.238296  0.152751  0.212597  0.032081 -0.228356 -0.166757
     4 z       0.129822 -0.086230 -0.119725 -0.018690  0.130843  0.091603
     5 x       0.235491 -0.159539  0.214377 -0.030801 -0.230426  0.170707
     5 y      -0.231699  0.148286 -0.206584  0.031210  0.221883 -0.161987
     5 z       0.204655 -0.136887  0.187932 -0.028548 -0.204248  0.145765
     6 x      -0.109060  0.060863  0.133304 -0.027747  0.135408  0.143378
     6 y       0.325663 -0.176072 -0.358190  0.076997 -0.360190 -0.380762
     6 z       0.011394 -0.007678 -0.013107  0.000168 -0.013016 -0.012305
     7 x       0.093052 -0.051696  0.114974  0.024601  0.116965 -0.124289
     7 y       0.328258 -0.177518  0.361378  0.077667  0.363426 -0.384203
     7 z       0.040838 -0.024075  0.049277  0.007794  0.049781 -0.051299
     8 x      -0.153173 -0.307128  0.028815  0.050622  0.047310 -0.006912
     8 y       0.037390  0.141198  0.032790  0.006526 -0.011807  0.029632
     8 z      -0.134491  0.171383  0.298087  0.086774 -0.058222  0.088069
     9 x      -0.024550  0.031945 -0.393140 -0.011274  0.008111 -0.015734
     9 y      -0.040679  0.054740 -0.005049 -0.026622  0.000104  0.003447
     9 z       0.172106 -0.224099 -0.057274  0.079730  0.001183  0.107693
    10 x       0.061672  0.059808 -0.003189 -0.043959 -0.000479  0.012729
    10 y       0.080385  0.074748 -0.000041 -0.056078 -0.000006  0.016321
    10 z      -0.430417 -0.417124 -0.000465  0.306688 -0.000070 -0.088815
    11 x      -0.006007 -0.005016  0.010045 -0.005697 -0.000361 -0.000917
    11 y      -0.287197 -0.398522  0.000128 -0.611688 -0.000007 -0.079692
    11 z       0.066554  0.069561  0.001464  0.093029 -0.000052  0.013317
    12 x       0.184183  0.241825  0.113466 -0.073421  0.028423 -0.019248
    12 y       0.041722  0.148248 -0.030962  0.004932  0.012780  0.029473
    12 z      -0.085344  0.251357 -0.277358  0.068703  0.069256  0.086272


  Frequency     814.3928  825.7085  843.8723  853.5208  875.7844  992.7014
  IR Intensity    0.0019    0.0116    0.0099    0.0055    0.0030    0.0001
     in X         0.0019    0.0002    0.0097    0.0001    0.0030    0.0000
     in Y         0.0000    0.0024    0.0000    0.0005    0.0000    0.0000
     in Z         0.0000    0.0090    0.0002    0.0050    0.0001    0.0001
  Raman Intsty    0.0000    0.0011    0.0000    0.0108    0.0000    1.6165

     1 x       0.657332  0.024104 -0.117924  0.082129 -0.237352 -0.068831
     1 y       0.008443 -0.272867 -0.001514 -0.075572 -0.003048  0.174952
     1 z       0.095764 -0.141371 -0.017183 -0.557076 -0.034578  0.457047
     2 x      -0.028280 -0.024280 -0.328041  0.342473  0.327216  0.511324
     2 y       0.088682 -0.141165  0.095492  0.146088 -0.065853 -0.080619
     2 z       0.276512 -0.371058  0.334763  0.154303  0.234637 -0.144243
     3 x       0.054012  0.132663 -0.216412 -0.375817  0.378789 -0.446734
     3 y      -0.088352 -0.139152 -0.102484  0.136864  0.074921 -0.092923
     3 z      -0.272757 -0.348200 -0.414077  0.049664 -0.131784 -0.283814
     4 x       0.044642 -0.015584  0.174051 -0.152992 -0.063935 -0.119696
     4 y       0.032742 -0.011485  0.141103 -0.132843 -0.046969 -0.097717
     4 z      -0.018995  0.007885 -0.080939  0.083655  0.021400  0.060762
     5 x       0.038176  0.012971  0.147223  0.126060 -0.056334  0.099807
     5 y      -0.031677 -0.011119 -0.136978 -0.129257  0.045424 -0.094898
     5 z       0.031059  0.012045  0.127743  0.124306 -0.038921  0.092739
     6 x       0.036803 -0.037841  0.061883  0.001199 -0.042270 -0.050076
     6 y      -0.085847  0.109697 -0.156097 -0.017405  0.106486  0.101932
     6 z      -0.000552  0.008428 -0.005957  0.006315 -0.001664  0.002678
     7 x       0.032945  0.031094  0.053667 -0.002513 -0.038297  0.044651
     7 y       0.086743  0.110584  0.157581 -0.017454 -0.107521  0.103149
     7 z       0.010713  0.018470  0.022791  0.005774 -0.010073  0.016478
     8 x      -0.319105 -0.269806  0.165774 -0.116393  0.175390  0.090804
     8 y       0.126058  0.152148 -0.120723  0.043667 -0.090650 -0.023630
     8 z       0.030518  0.397431 -0.360313 -0.032535 -0.163816  0.087052
     9 x      -0.352134 -0.010975  0.118248  0.028068 -0.654956  0.021798
     9 y      -0.004522 -0.031425  0.001519  0.047115 -0.008411  0.039864
     9 z      -0.051300  0.078087  0.017225 -0.196830 -0.095415 -0.153146
    10 x       0.008518 -0.011690  0.013476 -0.059222  0.001590  0.026729
    10 y       0.000110 -0.010395  0.000173 -0.077848  0.000020  0.038184
    10 z       0.001239  0.081163  0.001966  0.413376  0.000232 -0.186841
    11 x      -0.009942  0.002650  0.001980 -0.002040  0.001313  0.002275
    11 y      -0.000128  0.193763  0.000025 -0.009792  0.000017 -0.042341
    11 z      -0.001448 -0.035275  0.000289  0.014864  0.000191 -0.011886
    12 x      -0.293868  0.141305  0.053013  0.119699  0.119035 -0.111239
    12 y      -0.133933  0.157426  0.123533  0.046697  0.094431 -0.026224
    12 z      -0.119824  0.457323  0.392184  0.001854  0.206707  0.057618




--------------------------------------------------------------------------------
  Vibrational properties (for cluster):  Temperature  =       0.000 K
--------------------------------------------------------------------------------
  Zero point energy            =        0.632448 eV
--------------------------------------------------------------------------------

  Phonon density of states : 

--------------------------------------------------------------------------------
 Frequency (cm-1) Density of States                                             
--------------------------------------------------------------------------------
    0.00000 |******************************                                0.050
   15.51096 |                                                              0.000
   31.02192 |                                                              0.000
   46.53288 |******************************                                0.050
   62.04384 |                                                              0.000
   77.55480 |                                                              0.000
   93.06576 |******************************                                0.050
  108.57672 |************************************************************  0.100
  124.08768 |                                                              0.000
  139.59864 |************************************************************  0.100
  155.10960 |                                                              0.000
  170.62056 |                                                              0.000
  186.13152 |                                                              0.000
  201.64248 |******************************                                0.050
  217.15344 |                                                              0.000
  232.66439 |                                                              0.000
  248.17535 |                                                              0.000
  263.68631 |                                                              0.000
  279.19727 |                                                              0.000
  294.70823 |                                                              0.000
  310.21919 |                                                              0.000
  325.73015 |                                                              0.000
  341.24111 |                                                              0.000
  356.75207 |                                                              0.000
  372.26303 |                                                              0.000
  387.77399 |                                                              0.000
  403.28495 |                                                              0.000
  418.79591 |                                                              0.000
  434.30687 |                                                              0.000
  449.81783 |                                                              0.000
  465.32879 |                                                              0.000
  480.83975 |                                                              0.000
  496.35071 |                                                              0.000
  511.86167 |                                                              0.000
  527.37263 |******************************                                0.050
  542.88359 |                                                              0.000
  558.39455 |                                                              0.000
  573.90551 |******************************                                0.050
  589.41647 |******************************                                0.050
  604.92743 |                                                              0.000
  620.43839 |                                                              0.000
  635.94935 |                                                              0.000
  651.46031 |                                                              0.000
  666.97127 |                                                              0.000
  682.48222 |                                                              0.000
  697.99318 |                                                              0.000
  713.50414 |                                                              0.000
  729.01510 |                                                              0.000
  744.52606 |                                                              0.000
  760.03702 |                                                              0.000
  775.54798 |************************************************************  0.100
  791.05894 |******************************                                0.050
  806.56990 |******************************                                0.050
  822.08086 |******************************                                0.050
  837.59182 |******************************                                0.050
  853.10278 |******************************                                0.050
  868.61374 |******************************                                0.050
  884.12470 |                                                              0.000
  899.63566 |                                                              0.000
  915.14662 |                                                              0.000
  930.65758 |                                                              0.000
  946.16854 |                                                              0.000
  961.67950 |                                                              0.000
  977.19046 |******************************                                0.050
--------------------------------------------------------------------------------



  Time to end of optimisation =       0.0352 seconds


  Peak dynamic memory used =       0.65 MB 


  Timing analysis for GULP :

--------------------------------------------------------------------------------
  Task / Subroutine                                          Time (Seconds)
--------------------------------------------------------------------------------
  Calculation of real space energy and derivatives                0.0023
  Calculation of phonons                                          0.0016
  Calculation and manipulation of Hessian matrix                  0.0013
--------------------------------------------------------------------------------
  Total CPU time                                                  0.0352
--------------------------------------------------------------------------------


  Job Finished at 14:38.57 25th May        2022                               

