********************************************************************************
*                       GENERAL UTILITY LATTICE PROGRAM                        *
*                                 Julian Gale                                  *
*                       Curtin Institute for Computation                       *
*                           Department of Chemistry                            *
*                    Curtin University, Western Australia                      *
********************************************************************************
* Version = 5.1.1 * Last modified =  24th November 2018                        *
********************************************************************************
*  optimise     - perform optimisation run                                     *
*  conp         - constant pressure calculation                                *
*  property     - calculate properties for final geometry                      *
*  phonon       - calculate phonons for final geometry                         *
*  eigenvectors - output phonon eigenvectors                                   *
*  conjugate    - use conjugate gradients minimiser                            *
********************************************************************************

  Job Started  at 14:39.57 25th May        2022                               

  Number of CPUs =     1

  Host name      = login03                                 


  Total number of configurations input =      1

********************************************************************************
*  Input for Configuration =   1                                               *
********************************************************************************

  Formula = Al3F9                                                       

  Number of irreducible atoms/shells =      21


  Total number atoms/shells =      21

  Dimensionality = 0               :  Cluster


  Charge on cluster =  -0.000000


  Initial cluster dipoles : x =      0.097219 e.Angs
                            y =     -0.684300 e.Angs
                            z =     -0.038286 e.Angs

  Temperature of configuration =  0.000     K 

  Symmetry number =      1

  Cartesian coordinates of cluster :

--------------------------------------------------------------------------------
   No.  Atomic       x           y          z         Charge      Occupancy
        Label      (Angs)      (Angs)     (Angs)        (e)         (Frac)  
--------------------------------------------------------------------------------
      1 Al    c     -1.6988 *    2.5580 *   -1.2288 *   3.00000    1.000000    
      2 Al    c     -0.5317 *   -0.0010 *   -2.3481 *   3.00000    1.000000    
      3 Al    c     -2.2014 *   -0.3407 *   -0.5160 *   3.00000    1.000000    
      4 F     c     -0.7545 *    3.6828 *   -0.1597 *   0.59000    1.000000    
      5 F     c     -3.0150 *    3.1768 *   -2.3136 *   0.59000    1.000000    
      6 F     c     -1.3789 *   -1.6763 *   -1.7224 *   0.59000    1.000000    
      7 F     c     -2.5248 *    1.4480 *    0.0540 *   0.59000    1.000000    
      8 F     c     -3.2483 *   -1.3046 *    0.6012 *   0.59000    1.000000    
      9 F     c      0.6203 *   -0.5174 *   -3.6439 *   0.59000    1.000000    
     10 F     c     -0.3342 *    1.8937 *   -2.3498 *   0.59000    1.000000    
     11 F     c     -2.4549      0.4744     -2.3042     0.59000    1.000000    
     12 F     c     -0.3026 *    0.1557 *   -0.4019 *   0.59000    1.000000    
     13 F     s     -0.7545 *    3.6828 *   -0.1597 *  -1.59000    1.000000    
     14 F     s     -3.0150 *    3.1768 *   -2.3136 *  -1.59000    1.000000    
     15 F     s     -1.3789 *   -1.6763 *   -1.7224 *  -1.59000    1.000000    
     16 F     s     -2.5248 *    1.4480 *    0.0540 *  -1.59000    1.000000    
     17 F     s     -3.2483 *   -1.3046 *    0.6012 *  -1.59000    1.000000    
     18 F     s      0.6203 *   -0.5174 *   -3.6439 *  -1.59000    1.000000    
     19 F     s     -0.3342 *    1.8937 *   -2.3498 *  -1.59000    1.000000    
     20 F     s     -2.4549 *    0.4744 *   -2.3042 *  -1.59000    1.000000    
     21 F     s     -0.3026 *    0.1557 *   -0.4019 *  -1.59000    1.000000    
--------------------------------------------------------------------------------


  Brillouin zone sampling points :

--------------------------------------------------------------------------------
  Point number          x          y          z            Weight
--------------------------------------------------------------------------------
        1           0.000000   0.000000   0.000000     1.00000000
--------------------------------------------------------------------------------


********************************************************************************
*  General input information                                                   *
********************************************************************************

  Species output for all configurations : 

--------------------------------------------------------------------------------
  Species    Type    Atomic    Atomic    Charge       Radii (Angs)     Library
                     Number     Mass       (e)     Cova   Ionic  VDW   Symbol
--------------------------------------------------------------------------------
    Al       Core       13      26.98   3.000000   1.350  0.000  2.050          
    F        Core        9      19.00   0.590000   0.710  0.000  1.300          
    F        Shell       9       0.00  -1.590000   0.710  0.000  1.300          
--------------------------------------------------------------------------------


  Accuracy factor for short range sums = 12.000

  Time limit = Infinity

  Maximum range for interatomic potentials =    100000.000000 Angstroms

  General interatomic potentials :

--------------------------------------------------------------------------------
Atom  Types   Potential      Parameter       Value         Units   Cutoffs(Ang)
  1     2                                                            Min /  Max 
--------------------------------------------------------------------------------
Al   c F    s Buckingham    Buckingham A     3760.0008    eV        0.000 10.000
                            Buckingham rho  0.22200000    Ang       
                            Buckingham C     0.0000000    eV*Ang^6  
--------------------------------------------------------------------------------
F    s F    s Buck 4 range  Buck4 A          1127.7000    eV        0.000 12.000
                            Buck4 rho       0.27530000    Ang       
                            Buck4 C          15.830000    eV*Ang^6  
                            Buck4 minimum    2.7900000    Ang       
--------------------------------------------------------------------------------
F    c F    s Spring (c-s)  Spring k 2       20.770000    eV*Ang^-2 0.000  0.800
                            Spring k 4       0.0000000    eV*Ang^-4 
--------------------------------------------------------------------------------

********************************************************************************
*  Output for configuration   1                                                *
********************************************************************************


  Components of energy : 

--------------------------------------------------------------------------------
  Interatomic potentials     =          10.18451520 eV    
  Monopole - monopole (real) =        -177.92065764 eV    
--------------------------------------------------------------------------------
  Total lattice energy       =        -167.73614245 eV    
--------------------------------------------------------------------------------
  Total lattice energy       =          -16183.9737 kJ/mol
--------------------------------------------------------------------------------


  Number of variables =       60

  Maximum number of calculations  =          2000
  Maximum Hessian update interval =            10
  Maximum step size               =   1.000000000
  Maximum parameter tolerance     =   0.000001000
  Maximum function  tolerance     =   0.000010000
  Maximum gradient  tolerance     =   0.000000010
  Maximum gradient  component     =   0.010000000

  Symmetry not applied to optimisation

  Cell parameters to be optimised using strains

  Conjugate gradient optimiser to be used

  Lower half triangular hessian to be used

  Minimiser to switch to RFO
  When gradient norm is less than     0.010000

  Start of cluster optimisation :

  Cycle:      0 Energy:      -167.736142  Gnorm:      0.828164  CPU:    0.003
  Cycle:      1 Energy:      -180.107001  Gnorm:      0.448669  CPU:    0.004
  Cycle:      2 Energy:      -182.013367  Gnorm:      0.361867  CPU:    0.004
  Cycle:      3 Energy:      -183.769764  Gnorm:      0.249504  CPU:    0.004
  Cycle:      4 Energy:      -184.516116  Gnorm:      0.194005  CPU:    0.004
  Cycle:      5 Energy:      -185.017854  Gnorm:      0.149673  CPU:    0.004
  Cycle:      6 Energy:      -185.317465  Gnorm:      0.121100  CPU:    0.005
  Cycle:      7 Energy:      -185.521943  Gnorm:      0.099880  CPU:    0.005
  Cycle:      8 Energy:      -185.664046  Gnorm:      0.084443  CPU:    0.005
  Cycle:      9 Energy:      -185.768353  Gnorm:      0.072858  CPU:    0.005
  Cycle:     10 Energy:      -185.857087  Gnorm:      0.062939  CPU:    0.006
  Cycle:     11 Energy:      -185.916230  Gnorm:      0.056726  CPU:    0.006
  Cycle:     12 Energy:      -185.966901  Gnorm:      0.051563  CPU:    0.006
  Cycle:     13 Energy:      -186.009164  Gnorm:      0.047463  CPU:    0.006
  Cycle:     14 Energy:      -186.045494  Gnorm:      0.044069  CPU:    0.006
  Cycle:     15 Energy:      -186.077123  Gnorm:      0.041189  CPU:    0.007
  Cycle:     16 Energy:      -186.104959  Gnorm:      0.038680  CPU:    0.007
  Cycle:     17 Energy:      -186.129639  Gnorm:      0.036446  CPU:    0.007
  Cycle:     18 Energy:      -186.151634  Gnorm:      0.034422  CPU:    0.007
  Cycle:     19 Energy:      -186.171308  Gnorm:      0.032565  CPU:    0.008
  Cycle:     20 Energy:      -186.189862  Gnorm:      0.030752  CPU:    0.008
  Cycle:     21 Energy:      -186.205528  Gnorm:      0.029162  CPU:    0.008
  Cycle:     22 Energy:      -186.219717  Gnorm:      0.027661  CPU:    0.008
  Cycle:     23 Energy:      -186.232483  Gnorm:      0.026249  CPU:    0.008
  Cycle:     24 Energy:      -186.243985  Gnorm:      0.024916  CPU:    0.009
  Cycle:     25 Energy:      -186.254352  Gnorm:      0.023657  CPU:    0.009
  Cycle:     26 Energy:      -186.263701  Gnorm:      0.022465  CPU:    0.009
  Cycle:     27 Energy:      -186.272132  Gnorm:      0.021336  CPU:    0.009
  Cycle:     28 Energy:      -186.279739  Gnorm:      0.020266  CPU:    0.010
  Cycle:     29 Energy:      -186.286603  Gnorm:      0.019251  CPU:    0.010
  Cycle:     30 Energy:      -186.293099  Gnorm:      0.018240  CPU:    0.010
  Cycle:     31 Energy:      -186.298633  Gnorm:      0.017334  CPU:    0.010
  Cycle:     32 Energy:      -186.303659  Gnorm:      0.016469  CPU:    0.010
  Cycle:     33 Energy:      -186.308193  Gnorm:      0.015648  CPU:    0.011
  Cycle:     34 Energy:      -186.312287  Gnorm:      0.014869  CPU:    0.011
  Cycle:     35 Energy:      -186.315984  Gnorm:      0.014130  CPU:    0.011
  Cycle:     36 Energy:      -186.319322  Gnorm:      0.013427  CPU:    0.011
  Cycle:     37 Energy:      -186.322337  Gnorm:      0.012760  CPU:    0.011
  Cycle:     38 Energy:      -186.325061  Gnorm:      0.012127  CPU:    0.012
  Cycle:     39 Energy:      -186.327520  Gnorm:      0.011526  CPU:    0.012
  Cycle:     40 Energy:      -186.329850  Gnorm:      0.010927  CPU:    0.012
  Cycle:     41 Energy:      -186.331837  Gnorm:      0.010389  CPU:    0.012
  Cycle:     42 Energy:      -186.333644  Gnorm:      0.009876  CPU:    0.012
  ** Hessian has required structure
  Cycle:     43 Energy:      -186.336222  Gnorm:      0.009123  CPU:    0.014
  ** Hessian has required structure
  Cycle:     44 Energy:      -186.339300  Gnorm:      0.008131  CPU:    0.015
  ** Hessian has required structure
  Cycle:     45 Energy:      -186.343807  Gnorm:      0.006396  CPU:    0.015
  ** Hessian has required structure
  Cycle:     46 Energy:      -186.348047  Gnorm:      0.004124  CPU:    0.016
  ** Hessian has required structure
  Cycle:     47 Energy:      -186.350609  Gnorm:      0.001558  CPU:    0.017
  ** Hessian has required structure
  Cycle:     48 Energy:      -186.351033  Gnorm:      0.000016  CPU:    0.018
  ** Hessian has required structure
  Cycle:     49 Energy:      -186.351033  Gnorm:      0.000002  CPU:    0.019
  ** Hessian has required structure
  Cycle:     50 Energy:      -186.351033  Gnorm:      0.000000  CPU:    0.020
  ** Hessian has required structure
  Cycle:     51 Energy:      -186.351033  Gnorm:      0.000000  CPU:    0.020
  ** Hessian has required structure
  Cycle:     52 Energy:      -186.351033  Gnorm:      0.000000  CPU:    0.021
  ** Hessian has required structure
  Cycle:     53 Energy:      -186.351033  Gnorm:      0.000000  CPU:    0.022
  ** Hessian has required structure
  Cycle:     54 Energy:      -186.351033  Gnorm:      0.000000  CPU:    0.023
  ** Hessian has required structure
  Cycle:     55 Energy:      -186.351033  Gnorm:      0.000000  CPU:    0.024
  ** Hessian calculated **

  XYZ File written as 005/005_eig.xyz



  **** Optimisation achieved ****


  Final energy =    -186.35103317 eV
  Final Gnorm  =       0.00000001

  Components of energy : 

--------------------------------------------------------------------------------
  Interatomic potentials     =          37.52748887 eV    
  Monopole - monopole (real) =        -223.87852203 eV    
--------------------------------------------------------------------------------
  Total lattice energy       =        -186.35103317 eV    
--------------------------------------------------------------------------------
  Total lattice energy       =          -17980.0261 kJ/mol
--------------------------------------------------------------------------------

  Final cartesian coordinates of atoms :

--------------------------------------------------------------------------------
   No.  Atomic        x           y          z          Radius
        Label       (Angs)      (Angs)     (Angs)       (Angs) 
--------------------------------------------------------------------------------
     1  Al    c    -1.700640    2.559361   -1.230217    0.000000
     2  Al    c    -0.531359    0.000498   -2.347429    0.000000
     3  Al    c    -2.200993   -0.339214   -0.515326    0.000000
     4  F     c    -0.757433    3.685723   -0.161801    0.000000
     5  F     c    -3.017205    3.176292   -2.315638    0.000000
     6  F     c    -1.377281   -1.674999   -1.720677    0.000000
     7  F     c    -2.525985    1.449661    0.053252    0.000000
     8  F     c    -3.247283   -1.303083    0.602402    0.000000
     9  F     c     0.621338   -0.515953   -3.642670    0.000000
    10  F     c    -0.335374    1.895374   -2.350525    0.000000
    11  F     c    -2.454892    0.474372   -2.304185    0.000000
    12  F     c    -0.302636    0.158799   -0.401304    0.000000
    13  F     s    -0.895411    3.516323   -0.318954    0.000000
    14  F     s    -2.822418    3.082092   -2.155591    0.000000
    15  F     s    -1.376382   -1.410876   -1.670883    0.000000
    16  F     s    -2.397085    1.369805   -0.155364    0.000000
    17  F     s    -3.082835   -1.150218    0.426799    0.000000
    18  F     s     0.439988   -0.433446   -3.438826    0.000000
    19  F     s    -0.510701    1.753619   -2.225311    0.000000
    20  F     s    -2.250086    0.396490   -2.131982    0.000000
    21  F     s    -0.501343    0.112029   -0.591062    0.000000
--------------------------------------------------------------------------------


  Final Cartesian derivatives :

--------------------------------------------------------------------------------
   No.  Atomic          x             y             z           Radius
        Label       (eV/Angs)     (eV/Angs)    (eV/Angs)      (eV/Angs)
--------------------------------------------------------------------------------
      1 Al    c       0.000000     -0.000000      0.000000      0.000000
      2 Al    c      -0.000000     -0.000000      0.000000      0.000000
      3 Al    c       0.000000     -0.000000     -0.000000      0.000000
      4 F     c      -0.000000      0.000000     -0.000000      0.000000
      5 F     c      -0.000000     -0.000000     -0.000000      0.000000
      6 F     c       0.000000      0.000000      0.000000      0.000000
      7 F     c      -0.000000      0.000000     -0.000000      0.000000
      8 F     c      -0.000000      0.000000      0.000000      0.000000
      9 F     c       0.000000      0.000000     -0.000000      0.000000
     10 F     c       0.000000      0.000000      0.000000      0.000000
     11 F     c       0.000000      0.000000      0.000000      0.000000
     12 F     c       0.000000     -0.000000      0.000000      0.000000
     13 F     s      -0.000000      0.000000     -0.000000      0.000000
     14 F     s      -0.000000      0.000000     -0.000000      0.000000
     15 F     s      -0.000000      0.000000      0.000000      0.000000
     16 F     s       0.000000      0.000000     -0.000000      0.000000
     17 F     s      -0.000000      0.000000     -0.000000      0.000000
     18 F     s      -0.000000     -0.000000     -0.000000      0.000000
     19 F     s      -0.000000      0.000000      0.000000      0.000000
     20 F     s       0.000000     -0.000000      0.000000      0.000000
     21 F     s      -0.000000      0.000000     -0.000000      0.000000
--------------------------------------------------------------------------------
  Maximum abs         0.000000      0.000000      0.000000      0.000000
--------------------------------------------------------------------------------


  Born effective charge tensors : 

-------------------------------------------------------------------------------
  Atom             x           y             z
-------------------------------------------------------------------------------
    1 Al    x       0.7771     -0.0646     -0.4536
            y      -0.0456      1.5504      0.0119
            z      -0.4501     -0.0053      0.8505
-------------------------------------------------------------------------------
    2 Al    x       1.0635      0.0969      0.1932
            y       0.0851      1.2660     -0.1394
            z       0.1794     -0.1416      0.9516
-------------------------------------------------------------------------------
    3 Al    x       1.0492     -0.1999      0.1282
            y      -0.2014      1.1478      0.1586
            z       0.1395      0.1728      1.0840
-------------------------------------------------------------------------------
    4 F     x      -0.3651      0.1658      0.1770
            y       0.2002     -0.3739      0.2105
            z       0.1833      0.1793     -0.3253
-------------------------------------------------------------------------------
    5 F     x      -0.2264     -0.0946      0.2560
            y      -0.1461     -0.5464     -0.1368
            z       0.2465     -0.0899     -0.3187
-------------------------------------------------------------------------------
    6 F     x      -0.3575     -0.0108      0.0651
            y       0.0169     -0.4248      0.0166
            z       0.0702     -0.0087     -0.3688
-------------------------------------------------------------------------------
    7 F     x      -0.3022      0.0215      0.0364
            y       0.0254     -0.4125     -0.0262
            z       0.0411     -0.0110     -0.3254
-------------------------------------------------------------------------------
    8 F     x      -0.3382      0.1899     -0.2192
            y       0.1940     -0.3768     -0.2026
            z      -0.2226     -0.1967     -0.3085
-------------------------------------------------------------------------------
    9 F     x      -0.2952     -0.1043     -0.2827
            y      -0.1105     -0.5004      0.1282
            z      -0.2797      0.1241     -0.2279
-------------------------------------------------------------------------------
   10 F     x      -0.3140      0.0020      0.0381
            y      -0.0117     -0.4236      0.0122
            z       0.0316      0.0059     -0.3025
-------------------------------------------------------------------------------
   11 F     x      -0.3446     -0.0371      0.0304
            y      -0.0215     -0.4893     -0.0388
            z       0.0333     -0.0531     -0.3650
-------------------------------------------------------------------------------
   12 F     x      -0.3465      0.0352      0.0312
            y       0.0151     -0.4165      0.0058
            z       0.0274      0.0241     -0.3441
-------------------------------------------------------------------------------




  Moment of inertia tensor (10^-46 x kgm^2): 

-------------------------------------------------------------------------------
                x           y           z           Principal axis system
-------------------------------------------------------------------------------
       x        171.29        3.77       27.66          113.060023
       y          3.77      113.62       -1.77          141.709066
       z         27.66       -1.77      166.58          196.722275
-------------------------------------------------------------------------------
  Centre of mass (Ang) =    -1.485038     0.791818    -1.361476
-------------------------------------------------------------------------------


  Vibrational Frequency Calculation : 

--------------------------------------------------------------------------------

  Frequencies (cm-1) and Eigenvectors : 

  Frequency      -0.0167   -0.0078   -0.0000   -0.0000    0.0000    0.0125
  IR Intensity    0.0000    0.0002    0.0000    0.0000    0.0000    0.0003
     in X         0.0000    0.0001    0.0000    0.0000    0.0000    0.0002
     in Y         0.0000    0.0000    0.0000    0.0000    0.0000    0.0000
     in Z         0.0000    0.0001    0.0000    0.0000    0.0000    0.0001
  Raman Intsty    0.0000    0.0000    0.0000    0.0000    0.0000    0.0000

     1 x      -0.018393  0.177080 -0.120420 -0.224240 -0.205680  0.234693
     1 y      -0.003337  0.036340 -0.242402  0.204404 -0.080929  0.012783
     1 z       0.014726 -0.198489  0.183927  0.122574 -0.241320  0.213370
     2 x      -0.174150 -0.087422 -0.120420 -0.224240 -0.205680 -0.129643
     2 y       0.008413 -0.206697 -0.242402  0.204403 -0.080929 -0.008919
     2 z      -0.175201  0.081333  0.183927  0.122574 -0.241320 -0.118241
     3 x       0.194734 -0.105141 -0.120420 -0.224240 -0.205680 -0.125526
     3 y      -0.004656  0.167187 -0.242402  0.204404 -0.080928 -0.005753
     3 z       0.158547  0.134512  0.183927  0.122574 -0.241320 -0.113902
     4 x       0.137288  0.250558 -0.101054 -0.188178 -0.172602  0.344357
     4 y       0.031041  0.053359 -0.203419  0.171532 -0.067914 -0.198147
     4 z      -0.158144 -0.280679  0.154348  0.102862 -0.202511  0.269127
     5 x      -0.207558  0.192130 -0.101054 -0.188178 -0.172602  0.240533
     5 y      -0.044702  0.037199 -0.203419  0.171532 -0.067913  0.262263
     5 z       0.221578 -0.215555  0.154348  0.102862 -0.202511  0.269160
     6 x      -0.007514 -0.208690 -0.101054 -0.188178 -0.172603 -0.278781
     6 y      -0.002459 -0.043173 -0.203419  0.171532 -0.067914  0.023585
     6 z       0.014635  0.233890  0.154348  0.102862 -0.202511 -0.245599
     7 x       0.219724  0.065376 -0.101054 -0.188178 -0.172603  0.103678
     7 y      -0.003256  0.221537 -0.203419  0.171532 -0.067914 -0.025208
     7 z       0.163185 -0.054911  0.154348  0.102862 -0.202511  0.088008
     8 x       0.368155 -0.160500 -0.101054 -0.188178 -0.172603 -0.186288
     8 y      -0.011179  0.334028 -0.203419  0.171532 -0.067914 -0.000169
     8 z       0.318432  0.212292  0.154348  0.102862 -0.202511 -0.167342
     9 x      -0.349111 -0.126048 -0.101055 -0.188178 -0.172603 -0.194294
     9 y       0.014232 -0.392960 -0.203419  0.171531 -0.067914 -0.006324
     9 z      -0.330516  0.108889  0.154348  0.102862 -0.202511 -0.175779
    10 x      -0.186429  0.084884 -0.101054 -0.188178 -0.172603  0.099145
    10 y       0.011133 -0.190121 -0.203419  0.171532 -0.067914 -0.028693
    10 z      -0.204282 -0.113463  0.154348  0.102862 -0.202511  0.083230
    11 x      -0.148952 -0.033464 -0.101054 -0.188178 -0.172603 -0.055813
    11 y      -0.032748 -0.008678 -0.203419  0.171532 -0.067914  0.199406
    11 z       0.164268  0.037350  0.154348  0.102862 -0.202511 -0.009727
    12 x       0.171785 -0.045795 -0.101054 -0.188178 -0.172603 -0.048134
    12 y       0.037440 -0.007413 -0.203419  0.171532 -0.067914 -0.224460
    12 z      -0.186862  0.051507  0.154348  0.102862 -0.202511 -0.088706


  Frequency      63.1549   92.6049   96.3717  135.9369  158.6276  173.6160
  IR Intensity    0.0012    0.0001    0.0245    0.0036    0.0160    0.0027
     in X         0.0006    0.0000    0.0133    0.0020    0.0071    0.0012
     in Y         0.0003    0.0000    0.0000    0.0002    0.0003    0.0000
     in Z         0.0004    0.0000    0.0112    0.0014    0.0086    0.0014
  Raman Intsty    0.1349    0.0000    0.3403    2.9119    0.0000    0.0000

     1 x      -0.034235 -0.010206 -0.083170  0.097253  0.014177 -0.011024
     1 y       0.025708 -0.002076 -0.045316  0.253347  0.002884 -0.002243
     1 z      -0.026432  0.011199 -0.084197  0.135605 -0.015556  0.012097
     2 x       0.020195  0.004105 -0.059990 -0.134854 -0.049092 -0.221652
     2 y      -0.021513 -0.006814  0.025873 -0.129029 -0.122873 -0.022491
     2 z       0.031574 -0.014195 -0.066421 -0.065051  0.120640 -0.142180
     3 x       0.036965  0.012190 -0.076163 -0.054937 -0.134807  0.159115
     3 y      -0.018101  0.010130  0.022582 -0.112769  0.085455  0.009767
     3 z       0.013172 -0.003685 -0.048674 -0.152744  0.081155  0.210802
     4 x      -0.288168  0.258425  0.009825  0.023108  0.344907 -0.206033
     4 y       0.399073  0.052580 -0.153068  0.307794  0.070176 -0.041920
     4 z      -0.188616 -0.283572 -0.019428  0.078130 -0.378469  0.226082
     5 x      -0.080430 -0.333207 -0.036913  0.066712  0.121693  0.370957
     5 y      -0.257937 -0.067796  0.145809  0.127691  0.024760  0.075477
     5 z      -0.121125  0.365631 -0.006603  0.084473 -0.133535 -0.407055
     6 x      -0.257793  0.015962 -0.336620  0.061407  0.026696 -0.009270
     6 y       0.014012  0.003248  0.084523 -0.221210  0.005432 -0.001886
     6 z      -0.232334 -0.017516 -0.291096  0.014944 -0.029294  0.010172
     7 x       0.318998  0.243722 -0.086627  0.114345 -0.136907  0.221809
     7 y      -0.002655  0.001014  0.004537 -0.039867  0.130949  0.033711
     7 z       0.171666  0.172665 -0.017600 -0.209853  0.052450  0.203329
     8 x      -0.065794 -0.331436  0.436693  0.035109  0.154333 -0.124036
     8 y       0.045596  0.028117 -0.087957  0.249945 -0.427831 -0.103633
     8 z      -0.028966 -0.307428  0.335863  0.239862 -0.115953 -0.159648
     9 x      -0.043766  0.341793  0.391936  0.192971  0.018922  0.150811
     9 y       0.050078 -0.026009 -0.097064  0.282065  0.463082  0.109081
     9 z      -0.053138  0.296063  0.384976  0.066639 -0.074161  0.130268
    10 x       0.203133 -0.195215 -0.027494 -0.185374 -0.012564 -0.216862
    10 y      -0.026229  0.008855  0.016569 -0.100849 -0.161361 -0.032704
    10 z       0.298807 -0.225892 -0.082487  0.119031  0.111566 -0.208757
    11 x       0.067872 -0.052235 -0.041122 -0.155117 -0.126574 -0.237289
    11 y       0.197326 -0.010628  0.220819 -0.402255 -0.025753 -0.048280
    11 z       0.098441  0.057318  0.003470 -0.215948  0.138891  0.260380
    12 x       0.118630  0.044935 -0.048324 -0.042890 -0.188258  0.137572
    12 y      -0.402691  0.009143 -0.137908 -0.217076 -0.038304  0.027991
    12 z       0.033442 -0.049307 -0.069610 -0.079337  0.206577 -0.150959


  Frequency     175.1694  187.5886  219.4550  235.7126  245.1813  262.7742
  IR Intensity    0.0073    0.0064    0.0101    0.0006    0.1096    0.0138
     in X         0.0000    0.0021    0.0045    0.0003    0.0023    0.0065
     in Y         0.0071    0.0034    0.0002    0.0000    0.1070    0.0011
     in Z         0.0001    0.0010    0.0054    0.0003    0.0003    0.0063
  Raman Intsty    0.3670    0.0010    0.0000    0.0000    0.4779    0.0061

     1 x       0.110857 -0.231679  0.243298 -0.003715  0.136812  0.171298
     1 y       0.152159  0.046496  0.049503 -0.000756 -0.410148  0.071731
     1 z       0.129240 -0.202513 -0.266973  0.004077  0.048629  0.169408
     2 x      -0.078105  0.145626  0.002147  0.260010  0.042991  0.064030
     2 y       0.002664 -0.066828 -0.329731  0.063699 -0.114081  0.001489
     2 z      -0.035790  0.142946  0.035675  0.302575 -0.088635  0.056300
     3 x      -0.044001  0.167739 -0.094856 -0.312603 -0.061254  0.061755
     3 y       0.009603 -0.062329  0.310868 -0.074400 -0.135291  0.001026
     3 z      -0.073213  0.118681  0.066055 -0.244865  0.025753  0.058797
     4 x      -0.126395 -0.124252 -0.291217 -0.052650 -0.314248  0.040827
     4 y       0.462215 -0.076315 -0.059253 -0.010712  0.238157  0.260406
     4 z      -0.029482 -0.127384  0.319555  0.057773 -0.242221  0.085492
     5 x       0.107817 -0.085850 -0.216297  0.107293  0.251720  0.111438
     5 y       0.184160  0.711103 -0.044009  0.021830  0.230369 -0.251238
     5 z       0.132403  0.053617  0.237345 -0.117733  0.272113  0.054971
     6 x       0.052644  0.030528 -0.170281  0.030903 -0.011362 -0.052148
     6 y      -0.011722 -0.051958 -0.034646  0.006288 -0.043241 -0.003206
     6 z       0.045802  0.018186  0.186850 -0.033910 -0.018372 -0.048118
     7 x       0.043102  0.001472  0.114588  0.425309 -0.150125 -0.451767
     7 y       0.021112 -0.017634  0.259435 -0.064330 -0.154274  0.030576
     7 z      -0.018649 -0.128821 -0.063505  0.205580  0.142380 -0.236484
     8 x       0.216832 -0.066872  0.120572  0.064264 -0.133966 -0.029336
     8 y      -0.445789 -0.036677 -0.147104 -0.046302  0.101528 -0.004728
     8 z      -0.221910 -0.080830 -0.126030  0.130784  0.173486 -0.032197
     9 x      -0.112392 -0.079663  0.083335 -0.143238  0.136511 -0.033818
     9 y      -0.512775 -0.039280  0.188592  0.030233  0.156561 -0.005640
     9 z       0.139350 -0.066795 -0.097720 -0.044126 -0.123311 -0.027279
    10 x      -0.017340 -0.122546  0.096555 -0.259077  0.150700 -0.286056
    10 y       0.008814 -0.042867 -0.216475  0.098153 -0.093066  0.064292
    10 z       0.047675  0.007266 -0.168183 -0.387988 -0.187718 -0.418319
    11 x      -0.075823  0.129509  0.077064  0.114274  0.070372  0.171601
    11 y      -0.038665 -0.039111  0.015680  0.023251  0.111249  0.151615
    11 z      -0.076269  0.110772 -0.084563 -0.125394  0.084760  0.184497
    12 x      -0.075039  0.220335  0.006235 -0.219981 -0.140870  0.175242
    12 y       0.136717 -0.308759  0.001269 -0.044758  0.238626 -0.330550
    12 z      -0.043034  0.143545 -0.006841  0.241387 -0.084131  0.098411


  Frequency     265.3436  313.7128  320.9948  346.2090  389.4954  401.7913
  IR Intensity    0.0018    0.0038    0.0284    0.0036    0.0035    0.0010
     in X         0.0008    0.0017    0.0156    0.0002    0.0003    0.0004
     in Y         0.0000    0.0001    0.0000    0.0028    0.0032    0.0000
     in Z         0.0010    0.0021    0.0127    0.0006    0.0000    0.0005
  Raman Intsty    0.0000    0.0000    0.1817    0.0168    1.5178    0.0000

     1 x       0.145389  0.160678 -0.019704  0.041598 -0.056140 -0.018409
     1 y       0.029582  0.032692 -0.054903 -0.188515  0.189549 -0.003746
     1 z      -0.159536 -0.176314 -0.028137  0.002954 -0.016015  0.020200
     2 x      -0.200183 -0.074783 -0.159299  0.035802  0.108209 -0.339843
     2 y       0.252044  0.054419  0.050189  0.193843 -0.013225  0.004032
     2 z       0.086433  0.002782 -0.163423 -0.005656 -0.130489 -0.286143
     3 x      -0.016914  0.015319 -0.186231 -0.036743 -0.113307  0.317544
     3 y      -0.296216 -0.066518  0.044709  0.179083 -0.058296 -0.008569
     3 z       0.151790  0.062469 -0.133870  0.073947  0.112582  0.310612
     4 x       0.043745 -0.092220 -0.035143 -0.090590  0.089696  0.003272
     4 y       0.008901 -0.018764 -0.052345 -0.031543  0.044468  0.000666
     4 z      -0.048002  0.101194 -0.041732 -0.088405  0.089987 -0.003590
     5 x      -0.014753 -0.095006 -0.010930  0.102344 -0.125351  0.006759
     5 y      -0.003002 -0.019330  0.028047  0.008073  0.060761  0.001375
     5 z       0.016188  0.104251 -0.004760  0.094765 -0.102969 -0.007417
     6 x      -0.232284  0.404375  0.493313 -0.045682 -0.005258  0.064159
     6 y      -0.047262  0.082276 -0.047037  0.289598 -0.232884  0.013054
     6 z       0.254887 -0.443724  0.440845  0.012067 -0.047974 -0.070402
     7 x       0.175209  0.094161 -0.011411 -0.171166 -0.072045  0.056374
     7 y      -0.195623  0.106625  0.023184  0.144487  0.257164  0.018153
     7 z      -0.351932 -0.237910  0.096009  0.281223  0.191648  0.090042
     8 x      -0.139777 -0.068373  0.042865  0.026218 -0.136985 -0.025478
     8 y      -0.275510  0.058801 -0.005236 -0.002196 -0.153090 -0.002591
     8 z       0.095431  0.083282  0.039144 -0.035002  0.146566  0.003629
     9 x      -0.127917 -0.063265  0.043892 -0.030945  0.156014 -0.001231
     9 y       0.221044 -0.085584 -0.005027 -0.013827 -0.093475 -0.002844
     9 z       0.198312  0.061165  0.038017  0.027723 -0.174944  0.025679
    10 x       0.289354  0.241549  0.088385  0.229956  0.132827 -0.090876
    10 y       0.290145 -0.038320  0.043489  0.226101  0.298848 -0.025173
    10 z      -0.157837 -0.130468 -0.013498 -0.158932 -0.033159 -0.052183
    11 x       0.038784 -0.304059 -0.102153 -0.193396  0.350429  0.373747
    11 y       0.007891 -0.061865  0.416208 -0.513264 -0.236740  0.076044
    11 z      -0.042558  0.333646 -0.015920 -0.271417  0.275457 -0.410116
    12 x       0.053089 -0.237774 -0.073592  0.124814 -0.316352 -0.338216
    12 y       0.010802 -0.048379 -0.448944 -0.327181 -0.085697 -0.068815
    12 z      -0.058255  0.260911 -0.150310  0.053079 -0.304188  0.371128


  Frequency     418.0815  438.1885  481.0235  498.4861  549.6413  554.7822
  IR Intensity    0.0001    0.0211    0.0013    0.0127    0.0181    0.0921
     in X         0.0001    0.0094    0.0001    0.0009    0.0080    0.0507
     in Y         0.0000    0.0004    0.0012    0.0118    0.0003    0.0002
     in Z         0.0000    0.0113    0.0000    0.0001    0.0097    0.0412
  Raman Intsty    0.0183    0.0000    6.8742    1.7928    0.0000    0.0002

     1 x       0.014375 -0.074308  0.055314  0.025079  0.020067  0.004142
     1 y       0.005568 -0.015119 -0.249640 -0.105694  0.004083 -0.001220
     1 z       0.014132  0.081538  0.004120  0.003257 -0.022019  0.003548
     2 x       0.150477  0.096867 -0.038502  0.074516 -0.105014 -0.348320
     2 y       0.041477  0.037696  0.107490 -0.036753 -0.460329  0.016780
     2 z      -0.158130 -0.180621  0.027825 -0.041484  0.082760 -0.317950
     3 x      -0.145614  0.172771  0.003506 -0.025738 -0.152826 -0.351868
     3 y      -0.018767  0.017166  0.116038 -0.057151  0.407868  0.016059
     3 z       0.166773 -0.115255 -0.018271  0.068525  0.200171 -0.314056
     4 x       0.016223 -0.001625 -0.180791 -0.070063  0.030290 -0.031290
     4 y       0.022454 -0.000331 -0.203672 -0.095724  0.006163 -0.045175
     4 z       0.018948  0.001783 -0.202524 -0.081599 -0.033238 -0.036891
     5 x       0.017834 -0.002501  0.256221  0.125594  0.026427 -0.007728
     5 y      -0.036971 -0.000509 -0.111450 -0.071346  0.005377  0.019006
     5 z       0.009397  0.002745  0.212835  0.101227 -0.028999 -0.003518
     6 x       0.005044 -0.302242  0.003122 -0.005575  0.136820  0.021197
     6 y       0.650576 -0.061496  0.011805 -0.321639  0.027838  0.037845
     6 z       0.125228  0.331653  0.005034 -0.064720 -0.150134  0.026335
     7 x       0.147075  0.075258  0.174025  0.065972  0.040440  0.029884
     7 y      -0.091329 -0.166585  0.238596  0.396608 -0.487267  0.017661
     7 z      -0.240738 -0.123433 -0.281896 -0.108772 -0.073636  0.033856
     8 x      -0.210103  0.214720  0.150124 -0.179212  0.012920  0.008584
     8 y      -0.203166  0.179948  0.113048 -0.178878  0.031275 -0.017049
     8 z       0.223604 -0.235382 -0.161007  0.186941 -0.010747  0.040538
     9 x       0.232388  0.239186 -0.161434  0.195531  0.014759  0.043648
     9 y      -0.113134 -0.087594  0.049657 -0.102631 -0.025643 -0.009915
     9 z      -0.261945 -0.262694  0.180869 -0.224268 -0.019625  0.002062
    10 x      -0.202655  0.082220 -0.299724 -0.170970 -0.020757  0.033155
    10 y      -0.162487  0.198626  0.142205  0.348398  0.491272  0.018326
    10 z       0.143024 -0.049370  0.237953  0.151226  0.052037  0.030266
    11 x       0.023710 -0.232913  0.246464 -0.277399  0.012331  0.330670
    11 y      -0.037963 -0.047390 -0.130172  0.181720  0.002509 -0.177367
    11 z       0.014569  0.255577  0.200471 -0.219105 -0.013531  0.268458
    12 x      -0.052441 -0.304867 -0.212219  0.228110  0.030109  0.401313
    12 y      -0.061678 -0.062030 -0.078901  0.081339  0.006126  0.118988
    12 z      -0.059227  0.334533 -0.208030  0.222963 -0.033039  0.387788


  Frequency     600.2264  640.9123  687.5973  788.5629  796.1395  916.2855
  IR Intensity    0.0941    0.1563    0.0112    0.0216    0.0045    0.0002
     in X         0.0419    0.0009    0.0003    0.0096    0.0019    0.0000
     in Y         0.0017    0.1533    0.0108    0.0004    0.0006    0.0001
     in Z         0.0505    0.0021    0.0000    0.0116    0.0020    0.0000
  Raman Intsty    0.0000    0.0040    0.5305    0.0000    0.0573    2.6805

     1 x      -0.501940 -0.026546 -0.125980 -0.022540  0.532443 -0.001873
     1 y      -0.102127  0.134413  0.649486 -0.004586  0.085995  0.124153
     1 z       0.550783  0.000731  0.005621  0.024733  0.501172  0.021314
     2 x      -0.031613  0.085022 -0.043623  0.334488  0.005785  0.412952
     2 y      -0.144313  0.518290 -0.169626 -0.161613  0.006844 -0.083327
     2 z       0.035476 -0.059155  0.065446 -0.383500  0.028149 -0.461899
     3 x      -0.057369 -0.142445  0.089934  0.308958  0.026903 -0.391189
     3 y       0.126208  0.472008 -0.142452  0.292532  0.011141 -0.246942
     3 z       0.062165  0.190447 -0.081107 -0.322558  0.004975  0.420493
     4 x       0.018739 -0.077228 -0.239620 -0.003981 -0.247664 -0.018426
     4 y       0.003813 -0.084953 -0.321815 -0.000810 -0.276242 -0.023214
     4 z      -0.020563 -0.086132 -0.278042  0.004368 -0.276923 -0.021097
     5 x       0.018499  0.101978  0.319012 -0.002414 -0.356754  0.006586
     5 y       0.003764 -0.052247 -0.166603 -0.000491  0.156432 -0.007995
     5 z      -0.020299  0.083246  0.259831  0.002649 -0.296111  0.004519
     6 x       0.035116  0.000463 -0.003570 -0.056159 -0.010592 -0.000858
     6 y       0.007145 -0.400967  0.120390 -0.011426  0.006741 -0.045506
     6 z      -0.038533 -0.073926  0.019070  0.061624 -0.008403 -0.009219
     7 x       0.204496  0.029592 -0.066678 -0.000134 -0.010314  0.004901
     7 y       0.208163 -0.293539 -0.038671 -0.037590  0.004515  0.004860
     7 z      -0.316565 -0.049056  0.111000 -0.005525 -0.020231 -0.001314
     8 x       0.001148 -0.067757 -0.028200 -0.259461 -0.009457  0.173818
     8 y      -0.021255 -0.084859 -0.021573 -0.235339 -0.010199  0.160284
     8 z      -0.001593  0.070931  0.028302  0.277439  0.007670 -0.185473
     9 x      -0.002421  0.077295  0.028487 -0.285437  0.008311 -0.191316
     9 y       0.020996 -0.055346 -0.010039  0.124471 -0.006584  0.085992
     9 z       0.002989 -0.088236 -0.033901  0.320483 -0.011827  0.215192
    10 x       0.324761  0.008486  0.108204 -0.001398 -0.021719 -0.001629
    10 y      -0.100477 -0.297833 -0.003089  0.037278  0.002195  0.003532
    10 z      -0.264194 -0.025896 -0.080899  0.007206 -0.007717  0.005852
    11 x       0.049389  0.010037 -0.002601 -0.060735 -0.012742 -0.064436
    11 y       0.010049 -0.042045  0.025333 -0.012357  0.004000  0.041221
    11 z      -0.054195  0.001351  0.002327  0.066645 -0.010870 -0.051079
    12 x       0.054436  0.017196 -0.020100 -0.070175 -0.012500  0.067658
    12 y       0.011076 -0.028458  0.013998 -0.014278 -0.004766  0.026442
    12 z      -0.059733  0.010394 -0.015722  0.077004 -0.012276  0.066561




--------------------------------------------------------------------------------
  Vibrational properties (for cluster):  Temperature  =       0.000 K
--------------------------------------------------------------------------------
  Zero point energy            =        0.710042 eV
--------------------------------------------------------------------------------

  Phonon density of states : 

--------------------------------------------------------------------------------
 Frequency (cm-1) Density of States                                             
--------------------------------------------------------------------------------
    0.00000 |************************************************************  0.062
   14.31696 |                                                              0.000
   28.63392 |                                                              0.000
   42.95088 |                                                              0.000
   57.26785 |******************************                                0.031
   71.58481 |                                                              0.000
   85.90177 |************************************************************  0.062
  100.21873 |                                                              0.000
  114.53569 |                                                              0.000
  128.85265 |******************************                                0.031
  143.16961 |                                                              0.000
  157.48657 |******************************                                0.031
  171.80354 |************************************************************  0.062
  186.12050 |******************************                                0.031
  200.43746 |                                                              0.000
  214.75442 |******************************                                0.031
  229.07138 |******************************                                0.031
  243.38834 |******************************                                0.031
  257.70530 |************************************************************  0.062
  272.02227 |                                                              0.000
  286.33923 |                                                              0.000
  300.65619 |******************************                                0.031
  314.97315 |******************************                                0.031
  329.29011 |                                                              0.000
  343.60707 |******************************                                0.031
  357.92403 |                                                              0.000
  372.24099 |                                                              0.000
  386.55796 |******************************                                0.031
  400.87492 |******************************                                0.031
  415.19188 |******************************                                0.031
  429.50884 |******************************                                0.031
  443.82580 |                                                              0.000
  458.14276 |                                                              0.000
  472.45972 |******************************                                0.031
  486.77669 |******************************                                0.031
  501.09365 |                                                              0.000
  515.41061 |                                                              0.000
  529.72757 |                                                              0.000
  544.04453 |************************************************************  0.062
  558.36149 |                                                              0.000
  572.67845 |                                                              0.000
  586.99541 |******************************                                0.031
  601.31238 |                                                              0.000
  615.62934 |                                                              0.000
  629.94630 |******************************                                0.031
  644.26326 |                                                              0.000
  658.58022 |                                                              0.000
  672.89718 |                                                              0.000
  687.21414 |******************************                                0.031
  701.53111 |                                                              0.000
  715.84807 |                                                              0.000
  730.16503 |                                                              0.000
  744.48199 |                                                              0.000
  758.79895 |                                                              0.000
  773.11591 |                                                              0.000
  787.43287 |************************************************************  0.062
  801.74984 |                                                              0.000
  816.06680 |                                                              0.000
  830.38376 |                                                              0.000
  844.70072 |                                                              0.000
  859.01768 |                                                              0.000
  873.33464 |                                                              0.000
  887.65160 |                                                              0.000
  901.96856 |******************************                                0.031
--------------------------------------------------------------------------------



  Time to end of optimisation =       0.0263 seconds


  Peak dynamic memory used =       0.66 MB 


  Timing analysis for GULP :

--------------------------------------------------------------------------------
  Task / Subroutine                                          Time (Seconds)
--------------------------------------------------------------------------------
  Calculation of real space energy and derivatives                0.0106
  Calculation of phonons                                          0.0016
  Calculation and manipulation of Hessian matrix                  0.0084
  Calculation of matrix inversion                                 0.0001
  Global summation overhead                                       0.0002
--------------------------------------------------------------------------------
  Total CPU time                                                  0.0263
--------------------------------------------------------------------------------


  Job Finished at 14:39.57 25th May        2022                               

