12
Properties=species:S:1:pos:R:3:forces:R:3 energy=-186.09196910 pbc="F F F"
Al    -1.8164805609999999    2.47481802    -1.414037091    0.534331    -0.147722    -0.531444
Al    -0.684643255    0.05409340600000001    -2.3775074739999997    -1.278919    0.656402    0.777834
Al    -2.248993176    -0.45316371800000005    -0.520345837    0.096486    -0.999832    -0.140188
F    -0.774606041    3.460049936    -0.282119257    0.057434    0.028326    -0.057407
F    -3.109545147    3.406623393    -2.3454581919999997    -0.054833    0.00147    0.01664
F    -1.32101268    -1.651569627    -1.675627861    -0.315071    0.171972    0.486967
F    -2.009886262    1.341471183    0.205616962    0.172586    -0.166103    -0.381033
F    -3.281601863    -1.329279632    0.696904553    -0.063438    -0.26271    -0.035951
F    0.6029102980000001    -0.435137141    -3.550553904    -0.026752    0.228    0.10474
F    -0.007653725    1.886879414    -2.006385131    0.390498    0.422763    -0.197811
F    -2.597301957    0.343669451    -2.567219628    0.376897    -0.020395    0.062405
F    -0.5201556679999999    0.49614383900000003    -0.455432908    0.110779    0.087829    -0.104751
