------------------------------------------------------------
          Invoking FHI-aims ...

          When using FHI-aims, please cite the following reference:

            Volker Blum, Ralf Gehrke, Felix Hanke, Paula Havu,
            Ville Havu, Xinguo Ren, Karsten Reuter, and Matthias Scheffler,
            'Ab Initio Molecular Simulations with Numeric Atom-Centered Orbitals',
            Computer Physics Communications 180, 2175-2196 (2009)

          In addition, many other developments in FHI-aims are likely important for
          your particular application. A partial list of references is given at the end of
          this file. Thank you for giving credit to the authors of these developments.

          For any questions about FHI-aims, please visit our slack channel at

            https://fhi-aims.slack.com

          and our main development and support site at

            https://aims-git.rz-berlin.mpg.de .

          The latter site, in particular, has a wiki to collect information, as well
          as an issue tracker to log discussions, suggest improvements, and report issues
          or bugs. https://aims-git.rz-berlin.mpg.de is also the main development site
          of the project and all new and updated code versions can be obtained there.
          Please send an email to aims-coordinators@fhi-berlin.mpg.de and we will add
          you to these sites. They are for you and everyone is welcome there.

------------------------------------------------------------



  Date     :  20220517, Time     :  105911.776
  Time zero on CPU 1             :   0.391890000000000E-01  s.
  Internal wall clock time zero  :           422017151.776  s.

  FHI-aims created a unique identifier for this run for later identification
  aims_uuid : 14CCC978-F000-4F89-A48D-C1E8A40F4CF9

  Build configuration of the current instance of FHI-aims
  -------------------------------------------------------
  FHI-aims version      : 210914
  Commit number         : GITDIR-NOTFOUND
  CMake host system     : Linux-3.10.0-693.17.1.el7.x86_64
  CMake version         : 3.21.1
  Fortran compiler      : /shared/ucl/apps/intel/2018.Update3/impi/2018.3.222/intel64/bin/mpiifort (Intel) version 18.0.3.20180410
  Fortran compiler flags: -O3 -ip -fp-model precise
  C compiler            : /shared/ucl/apps/intel/2018.Update3/compilers_and_libraries_2018.3.222/linux/bin/intel64/icc (Intel) version 18.0.3.20180410
  C compiler flags      : -O3 -ip -fp-model precise -std=gnu99
  ELPA2 kernel          : AVX2
  Using MPI
  Using ScaLAPACK
  Using LibXC
  Using i-PI
  Using RLSY
  Linking against: /shared/ucl/apps/intel/2019.Update5/compilers_and_libraries_2019.5.281/linux/mkl/lib/intel64/libmkl_intel_lp64.so
                   /shared/ucl/apps/intel/2019.Update5/compilers_and_libraries_2019.5.281/linux/mkl/lib/intel64/libmkl_sequential.so
                   /shared/ucl/apps/intel/2019.Update5/compilers_and_libraries_2019.5.281/linux/mkl/lib/intel64/libmkl_core.so
                   /shared/ucl/apps/intel/2019.Update5/compilers_and_libraries_2019.5.281/linux/mkl/lib/intel64/libmkl_blacs_intelmpi_lp64.so
                   /shared/ucl/apps/intel/2019.Update5/compilers_and_libraries_2019.5.281/linux/mkl/lib/intel64/libmkl_scalapack_lp64.so

  Using       24 parallel tasks.
  Task        0 on host node-k98a-011 reporting.
  Task        1 on host node-k98a-011 reporting.
  Task        2 on host node-k98a-011 reporting.
  Task        3 on host node-k98a-011 reporting.
  Task        4 on host node-k98a-011 reporting.
  Task        5 on host node-k98a-011 reporting.
  Task        6 on host node-k98a-011 reporting.
  Task        7 on host node-k98a-011 reporting.
  Task        8 on host node-k98a-011 reporting.
  Task        9 on host node-k98a-011 reporting.
  Task       10 on host node-k98a-011 reporting.
  Task       11 on host node-k98a-011 reporting.
  Task       12 on host node-k98a-011 reporting.
  Task       13 on host node-k98a-011 reporting.
  Task       14 on host node-k98a-011 reporting.
  Task       15 on host node-k98a-011 reporting.
  Task       16 on host node-k98a-011 reporting.
  Task       17 on host node-k98a-011 reporting.
  Task       18 on host node-k98a-011 reporting.
  Task       19 on host node-k98a-011 reporting.
  Task       20 on host node-k98a-011 reporting.
  Task       21 on host node-k98a-011 reporting.
  Task       22 on host node-k98a-011 reporting.
  Task       23 on host node-k98a-011 reporting.

  Performing system and environment tests:
  | Environment variable OMP_NUM_THREADS correctly set to 1.
  | Checking for ScaLAPACK...
  | Testing pdtran()...
  | All pdtran() tests passed.

  Obtaining array dimensions for all initial allocations:
  
  -----------------------------------------------------------------------
  Parsing control.in (first pass over file, find array dimensions only).
  The contents of control.in will be repeated verbatim below
  unless switched off by setting 'verbatim_writeout .false.' .
  in the first line of control.in .
  -----------------------------------------------------------------------
  
  #########################################################################################  Physical model
  #########################################################################################
  xc                 pbesol
  spin               none
  relativistic       atomic_zora scalar
  charge             0.0
  #  SCF convergence
  occupation_type    gaussian 0.01
  mixer              pulay
  n_max_pulay        10
  charge_mix_param   0.5
  sc_accuracy_rho    1E-5
  sc_accuracy_eev    1E-3
  sc_accuracy_etot   1E-6
  sc_accuracy_forces 1E-4
  sc_iter_limit      1500
  #  Relaxation
  #relax_geometry   bfgs 1.e-3
  
  ################################################################################
  #
  #  FHI-aims code project
  #  VB, Fritz-Haber Institut, 2009
  #
  #  Suggested "light" defaults for Al atom (to be pasted into control.in file)
  #  Be sure to double-check any results obtained with these settings for post-processing,
  #  e.g., with the "tight" defaults and larger basis sets.
  #
  ################################################################################
    species        Al
  #     global species definitions
      nucleus             13
      mass                26.9815386
  #
      l_hartree           4
  #
      cut_pot             3.5          1.5  1.0
      basis_dep_cutoff    1e-4
  #
      radial_base         41 5.0
      radial_multiplier   1
      angular_grids       specified
        division   0.6594  110
        division   0.8170  194
        division   0.9059  302
  #      division   1.0363  434
  #      division   1.1443  590
  #      division   1.2621  770
  #      division   2.8177  974
  #      outer_grid   974
        outer_grid   302
  ################################################################################
  #
  #  Definition of "minimal" basis
  #
  ################################################################################
  #     valence basis states
      valence      3  s   2.
      valence      3  p   1.
  #     ion occupancy
      ion_occ      3  s   1.
      ion_occ      2  p   6.
  ################################################################################
  #
  #  Suggested additional basis functions. For production calculations,
  #  uncomment them one after another (the most important basis functions are
  #  listed first).
  #
  #  Constructed for dimers: 2.0 A, 2.5 A, 3.0 A, 3.75 A, 4.5 A
  #
  ################################################################################
  #  "First tier" - improvements: -199.47 meV to -10.63 meV
       ionic 3 d auto
       ionic 3 p auto
  #     hydro 4 f 4.7
       ionic 3 s auto
  #  "Second tier" - improvements: -5.35 meV to -1.57 meV
  #     hydro 5 g 7
  #     hydro 3 d 6
  #     hydro 2 s 11.6
  #     hydro 2 p 0.9
  #  "Third tier" - improvements: -0.63 meV to -0.20 meV
  #     hydro 5 f 7.6
  #     hydro 4 p 7.2
  #     hydro 4 s 3.7
  #     hydro 4 d 7.6
  #  "Fourth tier" - improvements: -0.17 meV to -0.08 meV
  #     hydro 4 d 13.6
  #     hydro 5 g 11.2
  #     hydro 4 d 0.9
  #     hydro 1 s 0.4
  #     hydro 4 p 0.1
  #     hydro 5 f 9.8
  #  Further basis functions that fell out of the optimization - noise level...
  #     hydro 4 p 5
  
  ################################################################################
  #
  #  FHI-aims code project
  #  VB, Fritz-Haber Institut, 2009
  #
  #  Suggested "light" defaults for F atom (to be pasted into control.in file)
  #  Be sure to double-check any results obtained with these settings for post-processing,
  #  e.g., with the "tight" defaults and larger basis sets.
  #
  ################################################################################
    species        F
  #     global species definitions
      nucleus             9
      mass                18.9984032
  #
      l_hartree           4
  #
      cut_pot             3.5  1.5  1.0
      basis_dep_cutoff    1e-4
  #
      radial_base         37 5.0
      radial_multiplier   1
      angular_grids specified
        division   0.4014  110
        division   0.5291  194
        division   0.6019  302
  #      division   0.6814  434
  #      division   0.7989  590
  #      division   0.8965  770
  #      division   1.3427  974
  #      outer_grid   974
        outer_grid   302
  ################################################################################
  #
  #  Definition of "minimal" basis
  #
  ################################################################################
  #     valence basis states
      valence      2  s   2.
      valence      2  p   5.
  #     ion occupancy
      ion_occ      2  s   1.
      ion_occ      2  p   4.
  ################################################################################
  #
  #  Suggested additional basis functions. For production calculations,
  #  uncomment them one after another (the most important basis functions are
  #  listed first).
  #
  #  Constructed for dimers: 1.2 A, 1.418 A, 1.75 A, 2.25 A, 3.25 A
  #
  ################################################################################
  #  "First tier" - improvements: -149.44 meV to -45.88 meV
       hydro 2 p 1.7
       hydro 3 d 7.4
       hydro 3 s 6.8
  #  "Second tier" - improvements: -12.96 meV to -1.56 meV
  #     hydro 4 f 11.2
  #     ionic 2 p auto
  #     hydro 1 s 0.75
  #     hydro 4 d 8.8
  #     hydro 5 g 16.8
  #  "Third tier" - improvements: -0.58 meV to -0.05 meV
  #     hydro 3 p 6.2
  #     hydro 3 s 3.2
  #     hydro 4 f 9.6
  #     hydro 3 s 19.6
  #     hydro 4 d 8.6
  #     hydro 5 g 14.4
  # Further basis functions: -0.05 meV and below
  #     hydro 3 p 4.2
  
  -----------------------------------------------------------------------
  Completed first pass over input file control.in .
  -----------------------------------------------------------------------
  
  
  -----------------------------------------------------------------------
  Parsing geometry.in (first pass over file, find array dimensions only).
  The contents of geometry.in will be repeated verbatim below
  unless switched off by setting 'verbatim_writeout .false.' .
  in the first line of geometry.in .
  -----------------------------------------------------------------------
  
  atom 1.282210262 0.046877516 2.447601237 Al
  atom 1.209677600 1.126199800 -0.070938400 Al
  atom -0.321855985 0.834866764 -2.325438073 Al
  atom -1.673123804 -0.369848944 -2.223708077 F
  atom 1.948940192 -0.123644354 0.652419513 F
  atom 0.046369384 1.817900854 -3.797735994 F
  atom -0.120411826 1.820992481 -0.687372895 F
  atom 2.430587753 2.273181509 -0.291890244 F
  atom 1.254436423 0.217525928 -1.414133577 F
  atom 0.574090271 1.479821223 1.379180502 F
  atom 2.541061130 0.592397619 3.625441809 F
  atom 0.021430159 -1.202289859 2.818580986 F
  
  -----------------------------------------------------------------------
  Completed first pass over input file geometry.in .
  -----------------------------------------------------------------------
  

  Basic array size parameters:
  | Number of species                 :        2
  | Number of atoms                   :       12
  | Max. basis fn. angular momentum   :        2
  | Max. atomic/ionic basis occupied n:        3
  | Max. number of basis fn. types    :        3
  | Max. radial fns per species/type  :        5
  | Max. logarithmic grid size        :     1340
  | Max. radial integration grid size :       41
  | Max. angular integration grid size:      302
  | Max. angular grid division number :        8
  | Radial grid for Hartree potential :     1340
  | Number of spin channels           :        1

------------------------------------------------------------
          Reading file control.in.
------------------------------------------------------------
  XC: Using PBEsol gradient-corrected functionals.
  Spin treatment: No spin polarisation.
  Scalar relativistic treatment of kinetic energy: on-site free-atom approximation to ZORA.
  Charge =   0.000000E+00: Neutral system requested explicitly.
  Occupation type: Gaussian broadening, width =   0.100000E-01 eV.
  Using pulay charge density mixing.
  Pulay mixing - number of memorized iterations:   10
  Charge density mixing - mixing parameter:     0.5000
  Convergence accuracy of self-consistent charge density:  0.1000E-04
  Convergence accuracy of sum of eigenvalues:  0.1000E-02
  Convergence accuracy of total energy:  0.1000E-05
  Convergence accuracy of forces:  0.1000E-03
  Maximum number of s.-c. iterations  :  1500
 
  Reading configuration options for species Al                  .
  | Found nuclear charge :  13.0000
  | Found atomic mass :    26.9815386000000      amu
  | Found l_max for Hartree potential  :   4
  | Found cutoff potl. onset [A], width [A], scale factor :    3.50000    1.50000    1.00000
  | Threshold for basis-dependent cutoff potential is   0.100000E-03
  | Found data for basic radial integration grid :    41 points, outermost radius =    5.000 A
  | Found multiplier for basic radial grid :   1
  | Found angular grid specification: user-specified.
  | Specified grid contains     4 separate shells.
  | Check grid settings after all constraints further below.
  | Found free-atom valence shell :  3 s   2.000
  | Found free-atom valence shell :  3 p   1.000
  | Found free-ion valence shell :  3 s   1.000
  | Found free-ion valence shell :  2 p   6.000
  | Found ionic basis function :  3 d , default cutoff radius.
  | Found ionic basis function :  3 p , default cutoff radius.
  | Found ionic basis function :  3 s , default cutoff radius.
  Species Al                  : Missing cutoff potential type.
  Defaulting to exp(1/x)/(1-x)^2 type cutoff potential.
  Species Al: No 'logarithmic' tag. Using default grid for free atom:
  | Default logarithmic grid data [bohr] : 0.1000E-03 0.1000E+03 0.1012E+01
  | Will include ionic basis functions of  2.0-fold positive Al                   ion.
  Species Al: On-site basis accuracy parameter (for Gram-Schmidt orthonormalisation) not specified.
  Using default value basis_acc =  0.1000000E-03.
  Species Al                  : Using default innermost maximum threshold i_radial=  2 for radial functions.
  Species Al                  : Default cutoff onset for free atom density etc. : 0.35000000E+01 AA.
  Species Al                  : Basic radial grid will be enhanced according to radial_multiplier =   1, to contain    41 grid points.
 
  Reading configuration options for species F                   .
  | Found nuclear charge :   9.0000
  | Found atomic mass :    18.9984032000000      amu
  | Found l_max for Hartree potential  :   4
  | Found cutoff potl. onset [A], width [A], scale factor :    3.50000    1.50000    1.00000
  | Threshold for basis-dependent cutoff potential is   0.100000E-03
  | Found data for basic radial integration grid :    37 points, outermost radius =    5.000 A
  | Found multiplier for basic radial grid :   1
  | Found angular grid specification: user-specified.
  | Specified grid contains     4 separate shells.
  | Check grid settings after all constraints further below.
  | Found free-atom valence shell :  2 s   2.000
  | Found free-atom valence shell :  2 p   5.000
  | Found free-ion valence shell :  2 s   1.000
  | Found free-ion valence shell :  2 p   4.000
  | Found hydrogenic basis function :  2 p   1.700
  | Found hydrogenic basis function :  3 d   7.400
  | Found hydrogenic basis function :  3 s   6.800
  Species F                   : Missing cutoff potential type.
  Defaulting to exp(1/x)/(1-x)^2 type cutoff potential.
  Species F : No 'logarithmic' tag. Using default grid for free atom:
  | Default logarithmic grid data [bohr] : 0.1000E-03 0.1000E+03 0.1012E+01
  Species F : On-site basis accuracy parameter (for Gram-Schmidt orthonormalisation) not specified.
  Using default value basis_acc =  0.1000000E-03.
  Species F                   : Using default innermost maximum threshold i_radial=  2 for radial functions.
  Species F                   : Default cutoff onset for free atom density etc. : 0.35000000E+01 AA.
  Species F                   : Basic radial grid will be enhanced according to radial_multiplier =   1, to contain    37 grid points.
 
  Finished reading input file 'control.in'.
 
------------------------------------------------------------


------------------------------------------------------------
          Reading geometry description geometry.in.
------------------------------------------------------------
  | The smallest distance between any two atoms is         1.62230213 AA.
  | The first atom of this pair is atom number                      2 .
  | The second atom of this pair is atom number                    10 .
  Input structure read successfully.
  The structure contains       12 atoms,  and a total of        120.000 electrons.

  Input geometry:
  | No unit cell requested.
  | Atomic structure:
  |       Atom                x [A]            y [A]            z [A]
  |    1: Species Al            1.28221026        0.04687752        2.44760124
  |    2: Species Al            1.20967760        1.12619980       -0.07093840
  |    3: Species Al           -0.32185599        0.83486676       -2.32543807
  |    4: Species F            -1.67312380       -0.36984894       -2.22370808
  |    5: Species F             1.94894019       -0.12364435        0.65241951
  |    6: Species F             0.04636938        1.81790085       -3.79773599
  |    7: Species F            -0.12041183        1.82099248       -0.68737289
  |    8: Species F             2.43058775        2.27318151       -0.29189024
  |    9: Species F             1.25443642        0.21752593       -1.41413358
  |   10: Species F             0.57409027        1.47982122        1.37918050
  |   11: Species F             2.54106113        0.59239762        3.62544181
  |   12: Species F             0.02143016       -1.20228986        2.81858099

 
  Finished reading input file 'control.in'.
 

------------------------------------------------------------
          Reading geometry description geometry.in.
------------------------------------------------------------
 
  Consistency checks for stacksize environment parameter are next.
 
  | Maximum stacksize for task 0: unlimited
  | Maximum stacksize for task 1: unlimited
  | Maximum stacksize for task 2: unlimited
  | Maximum stacksize for task 3: unlimited
  | Maximum stacksize for task 4: unlimited
  | Maximum stacksize for task 5: unlimited
  | Maximum stacksize for task 6: unlimited
  | Maximum stacksize for task 7: unlimited
  | Maximum stacksize for task 8: unlimited
  | Maximum stacksize for task 9: unlimited
  | Maximum stacksize for task 10: unlimited
  | Maximum stacksize for task 11: unlimited
  | Maximum stacksize for task 12: unlimited
  | Maximum stacksize for task 13: unlimited
  | Maximum stacksize for task 14: unlimited
  | Maximum stacksize for task 15: unlimited
  | Maximum stacksize for task 16: unlimited
  | Maximum stacksize for task 17: unlimited
  | Maximum stacksize for task 18: unlimited
  | Maximum stacksize for task 19: unlimited
  | Maximum stacksize for task 20: unlimited
  | Maximum stacksize for task 21: unlimited
  | Maximum stacksize for task 22: unlimited
  | Maximum stacksize for task 23: unlimited
  | Current stacksize for task 0: unlimited
  | Current stacksize for task 1: unlimited
  | Current stacksize for task 2: unlimited
  | Current stacksize for task 3: unlimited
  | Current stacksize for task 4: unlimited
  | Current stacksize for task 5: unlimited
  | Current stacksize for task 6: unlimited
  | Current stacksize for task 7: unlimited
  | Current stacksize for task 8: unlimited
  | Current stacksize for task 9: unlimited
  | Current stacksize for task 10: unlimited
  | Current stacksize for task 11: unlimited
  | Current stacksize for task 12: unlimited
  | Current stacksize for task 13: unlimited
  | Current stacksize for task 14: unlimited
  | Current stacksize for task 15: unlimited
  | Current stacksize for task 16: unlimited
  | Current stacksize for task 17: unlimited
  | Current stacksize for task 18: unlimited
  | Current stacksize for task 19: unlimited
  | Current stacksize for task 20: unlimited
  | Current stacksize for task 21: unlimited
  | Current stacksize for task 22: unlimited
  | Current stacksize for task 23: unlimited
 
  Consistency checks for the contents of control.in are next.
 
  MPI_IN_PLACE appears to work with this MPI implementation.
  | Keeping use_mpi_in_place .true. (see manual).
  Target number of points in a grid batch is not set. Defaulting to  100
  Method for grid partitioning is not set. Defaulting to parallel hash+maxmin partitioning.
  Batch size limit is not set. Defaulting to    200
  By default, will store active basis functions for each batch.
  If in need of memory, prune_basis_once .false. can be used to disable this option.
  communication_type for Hartree potential was not specified.
  Defaulting to calc_hartree .
  Pulay mixer: Number of initial linear mixing iterations not set.
  Defaulting to    0 iterations.
  Work space size for distributed Hartree potential not set.
  Defaulting to   0.200000E+03 MB.
  Algorithm-dependent basis array size parameters:
  | n_max_pulay                         :       10
  Presetting      1001 iterations before the initial mixing cycle
  is restarted anyway using the sc_init_iter criterion / keyword.
  Presetting a factor      1.000 between actual scf density residual
  and density convergence criterion sc_accuracy_rho below which sc_init_iter
  takes no effect.
  Geometry relaxation not requested: no relaxation will be performed.
  Forces evaluation will include force correction term due to incomplete self-consistency (default).
  Handling of forces: Unphysical translation and rotation will be removed from forces.
  No accuracy limit for integral partition fn. given. Defaulting to  0.1000E-14.
  No threshold value for u(r) in integrations given. Defaulting to  0.1000E-05.
  No accuracy for occupation numbers given. Defaulting to  0.1000E-12.
  No threshold value for occupation numbers given. Defaulting to  0.0000E+00.
  No accuracy for fermi level given. Defaulting to  0.1000E-19.
  Maximum # of iterations to find E_F not set. Defaulting to  200.
  Preferred method for the eigenvalue solver ('KS_method') not specified in 'control.in'.
  Calling BLACS routine to test compilation state
  Since ScaLAPACK support is enabled, defaulting to ELPA (via ELSI).
  Will not use alltoall communication since running on < 1024 CPUs.
  Threshold for basis singularities not set.
  Default threshold for basis singularities:  0.1000E-04
  partition_type (choice of integration weights) for integrals was not specified.
  | Using a version of the partition function of Stratmann and coworkers ('stratmann_sparse').
  | At each grid point, the set of atoms used to build the partition table is smoothly restricted to
  | only those atoms whose free-atom density would be non-zero at that grid point.
  Partitioning for Hartree potential was not defined. Using partition_type for integrals.
  | Adjusted default value of keyword multip_moments_threshold to:       0.10000000E-11
  | This value may affect high angular momentum components of the Hartree potential in periodic systems.
  No q(lm)/r^(l+1) cutoff set for long-range Hartree potential.
  | Using default value of  0.100000E-09 .
  | Verify using the multipole_threshold keyword.
  Defaulting to new monopole extrapolation.
  Density update method: automatic selection selected.
  Charge integration errors on the 3D integration grid will be compensated
  by explicit normalization and distribution of residual charges.
  Use the "compensate_multipole_errors" flag to change this behaviour.
  Set 'collect_eigenvectors' to be '.true.' for use_density_matrix .false.
 
  Consistency checks for the contents of geometry.in are next.
 
  Number of empty states per atom not set in control.in - providing a guess from actual geometry.
  | Total number of empty states used during s.c.f. cycle:       36
  If you use a very high smearing, use empty_states (per atom!) in control.in to increase this value.

  Structure-dependent array size parameters: 
  | Maximum number of distinct radial functions  :       14
  | Maximum number of basis functions            :      180
  | Number of Kohn-Sham states (occupied + empty):       96
------------------------------------------------------------

------------------------------------------------------------
          Preparing all fixed parts of the calculation.
------------------------------------------------------------
  Determining machine precision:
    2.225073858507201E-308
  Setting up grids for atomic and cluster calculations.

  Creating wave function, potential, and density for free atoms.

  Species: Al

  List of occupied orbitals and eigenvalues:
    n    l              occ      energy [Ha]    energy [eV]
    1    0           2.0000       -55.621123     -1513.5278
    2    0           2.0000        -3.957030      -107.6763
    3    0           2.0000        -0.272233        -7.4078
    2    1           6.0000        -2.540949       -69.1427
    3    1           1.0000        -0.083300        -2.2667


  Species: F

  List of occupied orbitals and eigenvalues:
    n    l              occ      energy [Ha]    energy [eV]
    1    0           2.0000       -24.399611      -663.9472
    2    0           2.0000        -1.098702       -29.8972
    2    1           5.0000        -0.408210       -11.1080


  Adding cutoff potential to free-atom effective potential.
  Creating fixed part of basis set: Ionic, confined, hydrogenic.
 
  Al                   ion:

  List of free ionic orbitals and eigenvalues:
    n    l      energy [Ha]    energy [eV]
    1    0       -56.418846     -1535.2349
    2    0        -4.732717      -128.7838
    3    0        -0.872690       -23.7471
    2    1        -3.317230       -90.2664


  List of ionic basis orbitals and eigenvalues:
    n    l      energy [Ha]    energy [eV]    outer radius [A]
    3    2        -0.346815        -9.4373       4.594041
    3    1        -0.631870       -17.1940       4.538221
    3    0        -0.872657       -23.7462       4.538221

 
  F                    hydrogenic:
 
  List of hydrogenic basis orbitals: 
    n    l      effective z      eigenvalue [eV]  inner max. [A]     outer max. [A]     outer radius [A]   
    2    1         1.700000        -9.7616           1.243167           1.243167           4.598524
    3    2         7.400000       -82.7828           0.642437           0.642437           3.305741
    3    0         6.800000       -69.9026           0.057798           1.022307           3.781556
 
  Creating atomic-like basis functions for current effective potential.

  Species Al                  :

  List of atomic basis orbitals and eigenvalues:
    n    l      energy [Ha]    energy [eV]    outer radius [A]
    1    0       -55.621123     -1513.5278       0.850197
    2    0        -3.957030      -107.6763       3.144911
    3    0        -0.272233        -7.4078       4.594041
    2    1        -2.540949       -69.1427       3.731966
    3    1        -0.083300        -2.2667       4.594041


  Species F                   :

  List of atomic basis orbitals and eigenvalues:
    n    l      energy [Ha]    energy [eV]    outer radius [A]
    1    0       -24.399611      -663.9472       1.258458
    2    0        -1.098702       -29.8972       4.325857
    2    1        -0.408210       -11.1080       4.487453

  Assembling full basis from fixed parts.
  | Species Al :   atomic orbital   1 s accepted.
  | Species Al :   atomic orbital   2 s accepted.
  | Species Al :    ionic orbital   3 s accepted.
  | Species Al :   atomic orbital   3 s accepted.
  | Species Al :   atomic orbital   2 p accepted.
  | Species Al :    ionic orbital   3 p accepted.
  | Species Al :   atomic orbital   3 p accepted.
  | Species Al :    ionic orbital   3 d accepted.
  | Species F :   atomic orbital   1 s accepted.
  | Species F :    hydro orbital   3 s accepted.
  | Species F :   atomic orbital   2 s accepted.
  | Species F :   atomic orbital   2 p accepted.
  | Species F :    hydro orbital   2 p accepted.
  | Species F :    hydro orbital   3 d accepted.
 
  Basis size parameters after reduction:
  | Total number of radial functions:       14
  | Total number of basis functions :      180
 
  Per-task memory consumption for arrays in subroutine allocate_ext:
  |           4.807768MB.
  Testing on-site integration grid accuracy.
  |  Species  Function  <phi|h_atom|phi> (log., in eV)  <phi|h_atom|phi> (rad., in eV)
           1        1              -1513.5277717935              -1513.5271881332
           1        2               -107.6762691836               -107.6762662489
           1        3                 -6.9467474784                 -6.9471269649
           1        4                  5.5771951849                  5.4862107220 ***
           1        5                -69.1427313144                -69.1427312731
           1        6                 -1.5197375330                 -1.5230432022
           1        7                  6.8210948310                  6.5529872240 ***
           1        8                  4.3216540965                  4.2851170187 ***
           2        9               -663.9471986398               -663.9470363334
           2       10                 16.8514011578                 16.8512525338
           2       11                -28.4490593856                -28.4490661472
           2       12                -11.1080115307                -11.1080620173
           2       13                  7.1940182175                  7.1685154137
           2       14                 44.8544281765                 44.8543763625
 * Note: Onsite integrals marked "***" above are less accurate than
 * onsite_accuracy_threshold =    0.03000 eV. Usually, this is harmless.
 * When in doubt, tighten the "radial" and/or "radial_multiplier" flags to check.

  Preparing densities etc. for the partition functions (integrals / Hartree potential).

  Preparations completed.
  max(cpu_time)          :      0.183 s.
  Wall clock time (cpu1) :      0.183 s.
------------------------------------------------------------

------------------------------------------------------------
          Begin self-consistency loop: Initialization.

          Date     :  20220517, Time     :  105912.004
------------------------------------------------------------

  Initializing index lists of integration centers etc. from given atomic structure:
  | Number of centers in hartree potential         :        12
  | Number of centers in hartree multipole         :        12
  | Number of centers in electron density summation:        12
  | Number of centers in basis integrals           :        12
  | Number of centers in integrals                 :        12
  | Number of centers in hamiltonian               :        12
  * Using 24 tasks for Scalapack Eigenvalue solver.
  Detailed listing of tasks and assigned k-points:
  (for non-periodic systems, the "k-point" denotes an internal label only)
   Task     0 k-point     1 on node-k98a-011
   Task     1 k-point     1 on node-k98a-011
   Task     2 k-point     1 on node-k98a-011
   Task     3 k-point     1 on node-k98a-011
   Task     4 k-point     1 on node-k98a-011
   Task     5 k-point     1 on node-k98a-011
   Task     6 k-point     1 on node-k98a-011
   Task     7 k-point     1 on node-k98a-011
   Task     8 k-point     1 on node-k98a-011
   Task     9 k-point     1 on node-k98a-011
   Task    10 k-point     1 on node-k98a-011
   Task    11 k-point     1 on node-k98a-011
   Task    12 k-point     1 on node-k98a-011
   Task    13 k-point     1 on node-k98a-011
   Task    14 k-point     1 on node-k98a-011
   Task    15 k-point     1 on node-k98a-011
   Task    16 k-point     1 on node-k98a-011
   Task    17 k-point     1 on node-k98a-011
   Task    18 k-point     1 on node-k98a-011
   Task    19 k-point     1 on node-k98a-011
   Task    20 k-point     1 on node-k98a-011
   Task    21 k-point     1 on node-k98a-011
   Task    22 k-point     1 on node-k98a-011
   Task    23 k-point     1 on node-k98a-011
  Tasks:    24 split into      6 X      4 BLACS grid
  Calculating block size based on n_basis =          180  max_nprow =            6  max_npcol =            4
  ScaLAPACK block size set to:           16
  Allocating        0.012 MB for ovlp
  Allocating        0.012 MB for ham
  Allocating        0.012 MB for eigenvec
  Required Scalapack workspace - INTEGER:            1  REAL:             1
  Partitioning the integration grid into batches with parallel hashing+maxmin method.
  | Number of batches:     1046
  | Maximal batch size:     185
  | Minimal batch size:      20
  | Average batch size:      87.878
  | Standard deviation of batch sizes:      25.383

  Integration load balanced across    24 MPI tasks.
  Work distribution over tasks is as follows:
  Task     0 has       3881 integration points.
  Task     1 has       3794 integration points.
  Task     2 has       3895 integration points.
  Task     3 has       3776 integration points.
  Task     4 has       3786 integration points.
  Task     5 has       3800 integration points.
  Task     6 has       3772 integration points.
  Task     7 has       3784 integration points.
  Task     8 has       3889 integration points.
  Task     9 has       3792 integration points.
  Task    10 has       3785 integration points.
  Task    11 has       3906 integration points.
  Task    12 has       3782 integration points.
  Task    13 has       3774 integration points.
  Task    14 has       3889 integration points.
  Task    15 has       3870 integration points.
  Task    16 has       3864 integration points.
  Task    17 has       3907 integration points.
  Task    18 has       3884 integration points.
  Task    19 has       3876 integration points.
  Task    20 has       3772 integration points.
  Task    21 has       3773 integration points.
  Task    22 has       3803 integration points.
  Task    23 has       3866 integration points.
  Initializing partition tables, free-atom densities, potentials, etc. across the integration grid (initialize_grid_storage).
  | initialize_grid_storage: Actual outermost partition radius vs. multipole_radius_free
  | (-- VB: in principle, multipole_radius_free should be larger, hence this output)
  | Species        1: Confinement radius =              4.999999999999999 AA, multipole_radius_free =              5.004487022111096 AA.
  | Species        1: outer_partition_radius set to              5.004487022111096 AA .
  | Species        2: Confinement radius =              4.999999999999999 AA, multipole_radius_free =              5.009370088163274 AA.
  | Species        2: outer_partition_radius set to              5.009370088163274 AA .
  | The sparse table of interatomic distances needs          1.64 kbyte instead of         1.15 kbyte of memory.
  | Using the partition_type stratmann_smoother will reduce your memory usage.
  | Net number of integration points:    91920
  | of which are non-zero points    :    85269
  Renormalizing the initial density to the exact electron count on the 3D integration grid.
  | Initial density: Formal number of electrons (from input files) :     120.0000000000
  | Integrated number of electrons on 3D grid     :     119.9998529456
  | Charge integration error                      :      -0.0001470544
  | Normalization factor for density and gradient :       1.0000012255
  Renormalizing the free-atom superposition density to the exact electron count on the 3D integration grid.
  | Formal number of electrons (from input files) :     120.0000000000
  | Integrated number of electrons on 3D grid     :     119.9998529456
  | Charge integration error                      :      -0.0001470544
  | Normalization factor for density and gradient :       1.0000012255
  Obtaining max. number of non-zero basis functions in each batch (get_n_compute_maxes).
  | Maximal number of non-zero basis functions:      158 in task     0
  | Maximal number of non-zero basis functions:      161 in task     1
  | Maximal number of non-zero basis functions:      162 in task     2
  | Maximal number of non-zero basis functions:      161 in task     3
  | Maximal number of non-zero basis functions:      160 in task     4
  | Maximal number of non-zero basis functions:      161 in task     5
  | Maximal number of non-zero basis functions:      160 in task     6
  | Maximal number of non-zero basis functions:      160 in task     7
  | Maximal number of non-zero basis functions:      158 in task     8
  | Maximal number of non-zero basis functions:      163 in task     9
  | Maximal number of non-zero basis functions:      161 in task    10
  | Maximal number of non-zero basis functions:      160 in task    11
  | Maximal number of non-zero basis functions:      160 in task    12
  | Maximal number of non-zero basis functions:      155 in task    13
  | Maximal number of non-zero basis functions:      159 in task    14
  | Maximal number of non-zero basis functions:      166 in task    15
  | Maximal number of non-zero basis functions:      165 in task    16
  | Maximal number of non-zero basis functions:      165 in task    17
  | Maximal number of non-zero basis functions:      154 in task    18
  | Maximal number of non-zero basis functions:      162 in task    19
  | Maximal number of non-zero basis functions:      161 in task    20
  | Maximal number of non-zero basis functions:      160 in task    21
  | Maximal number of non-zero basis functions:      163 in task    22
  | Maximal number of non-zero basis functions:      163 in task    23
  Selecting the method for density update.
  Loop over occupied states selected for charge density update.
  Allocating        0.132 MB for KS_eigenvector
  Integrating Hamiltonian matrix: batch-based integration.
  Time summed over all CPUs for integration: real work        0.699 s, elapsed        0.748 s
  Integrating overlap matrix.
  Time summed over all CPUs for integration: real work        0.266 s, elapsed        0.290 s
  Deallocating overlap matrix.

  Updating Kohn-Sham eigenvalues and eigenvectors using ELSI and the ELPA eigensolver.
  Overlap matrix is not singular
  | Lowest and highest eigenvalues :  0.2239E-02,  0.5272E+01
  Finished singularity check of overlap matrix
  | Time :     0.003 s
  Starting ELPA eigensolver
  Finished Cholesky decomposition
  | Time :     0.002 s
  Finished transformation to standard eigenproblem
  | Time :     0.000 s
  Finished solving standard eigenproblem
  | Time :     0.004 s
  Finished back-transformation of eigenvectors
  | Time :     0.000 s

  Obtaining occupation numbers and chemical potential using ELSI.
  | Chemical potential (Fermi level):    -7.41022904 eV
  Writing Kohn-Sham eigenvalues.

  State    Occupation    Eigenvalue [Ha]    Eigenvalue [eV]
      1       2.00000         -55.497258        -1510.15724
      2       2.00000         -55.484127        -1509.79993
      3       2.00000         -55.484127        -1509.79992
      4       2.00000         -24.399708         -663.94982
      5       2.00000         -24.399707         -663.94982
      6       2.00000         -24.399707         -663.94981
      7       2.00000         -24.399707         -663.94980
      8       2.00000         -24.358569         -662.83040
      9       2.00000         -24.341486         -662.36552
     10       2.00000         -24.341486         -662.36552
     11       2.00000         -24.340896         -662.34949
     12       2.00000         -24.340896         -662.34949
     13       2.00000          -3.970179         -108.03406
     14       2.00000          -3.949208         -107.46341
     15       2.00000          -3.949207         -107.46340
     16       2.00000          -2.565553          -69.81224
     17       2.00000          -2.564264          -69.77718
     18       2.00000          -2.560108          -69.66408
     19       2.00000          -2.541926          -69.16932
     20       2.00000          -2.541922          -69.16921
     21       2.00000          -2.541662          -69.16216
     22       2.00000          -2.541662          -69.16213
     23       2.00000          -2.539589          -69.10572
     24       2.00000          -2.539587          -69.10568
     25       2.00000          -1.263716          -34.38746
     26       2.00000          -1.235201          -33.61154
     27       2.00000          -1.228544          -33.43039
     28       2.00000          -1.208851          -32.89451
     29       2.00000          -1.173809          -31.94097
     30       2.00000          -1.151265          -31.32750
     31       2.00000          -1.151238          -31.32678
     32       2.00000          -1.148605          -31.25512
     33       2.00000          -1.148595          -31.25486
     34       2.00000          -0.623415          -16.96400
     35       2.00000          -0.600083          -16.32910
     36       2.00000          -0.593216          -16.14224
     37       2.00000          -0.580063          -15.78432
     38       2.00000          -0.556935          -15.15496
     39       2.00000          -0.554980          -15.10178
     40       2.00000          -0.537260          -14.61960
     41       2.00000          -0.524607          -14.27529
     42       2.00000          -0.521523          -14.19137
     43       2.00000          -0.505904          -13.76634
     44       2.00000          -0.504404          -13.72553
     45       2.00000          -0.500602          -13.62207
     46       2.00000          -0.497775          -13.54514
     47       2.00000          -0.495590          -13.48570
     48       2.00000          -0.485381          -13.20788
     49       2.00000          -0.485311          -13.20599
     50       2.00000          -0.485149          -13.20156
     51       2.00000          -0.466156          -12.68474
     52       2.00000          -0.465722          -12.67293
     53       2.00000          -0.456482          -12.42150
     54       2.00000          -0.455900          -12.40566
     55       2.00000          -0.454839          -12.37679
     56       2.00000          -0.454293          -12.36195
     57       2.00000          -0.450962          -12.27131
     58       2.00000          -0.450878          -12.26901
     59       2.00000          -0.448988          -12.21758
     60       2.00000          -0.448654          -12.20850
     61       0.00000          -0.128683           -3.50164
     62       0.00000          -0.114447           -3.11427
     63       0.00000          -0.031877           -0.86741
     64       0.00000          -0.024271           -0.66045
     65       0.00000          -0.023778           -0.64703
     66       0.00000          -0.000769           -0.02092
     67       0.00000           0.019646            0.53459
     68       0.00000           0.042098            1.14555
     69       0.00000           0.079959            2.17580
     70       0.00000           0.099206            2.69953
     71       0.00000           0.104032            2.83085
     72       0.00000           0.141840            3.85965
     73       0.00000           0.162678            4.42670
     74       0.00000           0.168716            4.59101
     75       0.00000           0.170077            4.62804
     76       0.00000           0.180250            4.90486
     77       0.00000           0.181455            4.93764
     78       0.00000           0.185435            5.04595
     79       0.00000           0.193720            5.27138
     80       0.00000           0.214904            5.84783
     81       0.00000           0.216001            5.87768
     82       0.00000           0.222645            6.05848
     83       0.00000           0.236744            6.44213
     84       0.00000           0.241934            6.58336
     85       0.00000           0.264935            7.20926
     86       0.00000           0.270819            7.36936
     87       0.00000           0.273373            7.43887
     88       0.00000           0.279556            7.60709
     89       0.00000           0.297283            8.08949
     90       0.00000           0.302876            8.24168
     91       0.00000           0.305623            8.31644
     92       0.00000           0.338682            9.21601
     93       0.00000           0.348593            9.48570
     94       0.00000           0.358906            9.76632
     95       0.00000           0.368695           10.03271
     96       0.00000           0.382520           10.40891

  Highest occupied state (VBM) at    -12.20849800 eV
  | Occupation number:      2.00000000

  Lowest unoccupied state (CBM) at    -3.50163833 eV
  | Occupation number:      0.00000000

  Overall HOMO-LUMO gap:      8.70685967 eV.
  Calculating total energy contributions from superposition of free atom densities.

  Total energy components:
  | Sum of eigenvalues            :        -889.81487461 Ha      -24213.09468682 eV
  | XC energy correction          :        -144.56944295 Ha       -3933.93469915 eV
  | XC potential correction       :         188.25217386 Ha        5122.60228579 eV
  | Free-atom electrostatic energy:        -779.20508199 Ha      -21203.24909033 eV
  | Hartree energy correction     :           0.00000000 Ha           0.00000000 eV
  | Entropy correction            :           0.00000000 Ha           0.00000000 eV
  | ---------------------------
  | Total energy                  :       -1625.33722569 Ha      -44227.67619050 eV
  | Total energy, T -> 0          :       -1625.33722569 Ha      -44227.67619050 eV  <-- do not rely on this value for anything but (periodic) metals
  | Electronic free energy        :       -1625.33722569 Ha      -44227.67619050 eV

  Derived energy quantities:
  | Kinetic energy                :        1628.27232723 Ha       44307.54436702 eV
  | Electrostatic energy          :       -3109.04010997 Ha      -84601.28585837 eV
  | Energy correction for multipole
  | error in Hartree potential    :           0.00000000 Ha           0.00000000 eV
  | Sum of eigenvalues per atom                           :       -2017.75789057 eV
  | Total energy (T->0) per atom                          :       -3685.63968254 eV  <-- do not rely on this value for anything but (periodic) metals
  | Electronic free energy per atom                       :       -3685.63968254 eV
  Initialize hartree_potential_storage
  Max. number of atoms included in rho_multipole:           12

  End scf initialization - timings             :  max(cpu_time)    wall_clock(cpu1)
  | Time for scf. initialization                :        0.115 s           0.115 s
  | Boundary condition initialization           :        0.000 s           0.000 s
  | Integration                                 :        0.045 s           0.045 s
  | Solution of K.-S. eqns.                     :        0.012 s           0.012 s
  | Grid partitioning                           :        0.036 s           0.036 s
  | Preloading free-atom quantities on grid     :        0.015 s           0.015 s
  | Free-atom superposition energy              :        0.005 s           0.005 s
  | Total energy evaluation                     :        0.000 s           0.000 s

  Partial memory accounting:
  | Current value for overall tracked memory usage:
  |   Minimum:        0.273 MB (on task 23)
  |   Maximum:        0.292 MB (on task  0)
  |   Average:        0.287 MB
  | Peak value for overall tracked memory usage:
  |   Minimum:        1.253 MB (on task 18 after allocating wave)
  |   Maximum:        1.326 MB (on task 16 after allocating wave)
  |   Average:        1.293 MB
  | Largest tracked array allocation so far:
  |   Minimum:        0.217 MB (H_times_psi on task 18)
  |   Maximum:        0.496 MB (all_coords on task 14)
  |   Average:        0.252 MB
  Note:  These values currently only include a subset of arrays which are explicitly tracked.
  The "true" memory usage will be greater.
------------------------------------------------------------
  Evaluating new KS density.
  Integration grid: deviation in total charge (<rho> - N_e) =   1.421085E-14

  Time for density update prior                :  max(cpu_time)    wall_clock(cpu1)
  | self-consistency iterative process          :        0.028 s           0.028 s

------------------------------------------------------------
          Begin self-consistency iteration #    1

  Date     :  20220517, Time     :  105912.147
------------------------------------------------------------
  Pulay mixing of updated and previous charge densities.
  Renormalizing the density to the exact electron count on the 3D integration grid.
  | Formal number of electrons (from input files) :     120.0000000000
  | Integrated number of electrons on 3D grid     :     120.0000000000
  | Charge integration error                      :       0.0000000000
  | Normalization factor for density and gradient :       1.0000000000

  Evaluating partitioned Hartree potential by multipole expansion.
  | Original multipole sum: apparent total charge =   0.118315E-13
  | Sum of charges compensated after spline to logarithmic grids =   0.125854E-03
  | Analytical far-field extrapolation by fixed multipoles:
  | Hartree multipole sum: apparent total charge =   0.122989E-13
  Summing up the Hartree potential.
  Time summed over all CPUs for potential: real work        0.379 s, elapsed        0.390 s
  | RMS charge density error from multipole expansion :   0.114238E-01

  Integrating Hamiltonian matrix: batch-based integration.
  Time summed over all CPUs for integration: real work        0.649 s, elapsed        0.689 s

  Updating Kohn-Sham eigenvalues and eigenvectors using ELSI and the ELPA eigensolver.
  Starting ELPA eigensolver
  Finished transformation to standard eigenproblem
  | Time :     0.001 s
  Finished solving standard eigenproblem
  | Time :     0.003 s
  Finished back-transformation of eigenvectors
  | Time :     0.000 s

  Obtaining occupation numbers and chemical potential using ELSI.
  | Chemical potential (Fermi level):    -6.88588366 eV
  Writing Kohn-Sham eigenvalues.

  State    Occupation    Eigenvalue [Ha]    Eigenvalue [eV]
      1       2.00000         -55.648917        -1514.28409
      2       2.00000         -55.648910        -1514.28389
      3       2.00000         -55.527116        -1510.96971
      4       2.00000         -24.207490         -658.71933
      5       2.00000         -24.207490         -658.71932
      6       2.00000         -24.207489         -658.71929
      7       2.00000         -24.207487         -658.71924
      8       2.00000         -24.083101         -655.33452
      9       2.00000         -24.083096         -655.33438
     10       2.00000         -24.077490         -655.18184
     11       2.00000         -24.077486         -655.18173
     12       2.00000         -24.040244         -654.16832
     13       2.00000          -4.086217         -111.19163
     14       2.00000          -4.086211         -111.19145
     15       2.00000          -3.994277         -108.68981
     16       2.00000          -2.680063          -72.92823
     17       2.00000          -2.680055          -72.92800
     18       2.00000          -2.679333          -72.90837
     19       2.00000          -2.679326          -72.90817
     20       2.00000          -2.677457          -72.85730
     21       2.00000          -2.677451          -72.85715
     22       2.00000          -2.589153          -70.45443
     23       2.00000          -2.586781          -70.38988
     24       2.00000          -2.584857          -70.33755
     25       2.00000          -1.195330          -32.52658
     26       2.00000          -1.165654          -31.71906
     27       2.00000          -1.154044          -31.40314
     28       2.00000          -1.132826          -30.82576
     29       2.00000          -1.028337          -27.98248
     30       2.00000          -1.028300          -27.98147
     31       2.00000          -1.021488          -27.79610
     32       2.00000          -1.021457          -27.79525
     33       2.00000          -1.002191          -27.27100
     34       2.00000          -0.572551          -15.57991
     35       2.00000          -0.541147          -14.72536
     36       2.00000          -0.534345          -14.54026
     37       2.00000          -0.519043          -14.12387
     38       2.00000          -0.498540          -13.56596
     39       2.00000          -0.492601          -13.40436
     40       2.00000          -0.470278          -12.79692
     41       2.00000          -0.453373          -12.33691
     42       2.00000          -0.451510          -12.28622
     43       2.00000          -0.427109          -11.62222
     44       2.00000          -0.419507          -11.41536
     45       2.00000          -0.408654          -11.12003
     46       2.00000          -0.408281          -11.10989
     47       2.00000          -0.401523          -10.92599
     48       2.00000          -0.374334          -10.18616
     49       2.00000          -0.372937          -10.14813
     50       2.00000          -0.349105           -9.49964
     51       2.00000          -0.341327           -9.28797
     52       2.00000          -0.340696           -9.27081
     53       2.00000          -0.340352           -9.26145
     54       2.00000          -0.340061           -9.25352
     55       2.00000          -0.329608           -8.96908
     56       2.00000          -0.329238           -8.95903
     57       2.00000          -0.325423           -8.85522
     58       2.00000          -0.324925           -8.84166
     59       2.00000          -0.305154           -8.30366
     60       2.00000          -0.303701           -8.26412
     61       0.00000          -0.126609           -3.44521
     62       0.00000          -0.110783           -3.01457
     63       0.00000          -0.045815           -1.24670
     64       0.00000          -0.037176           -1.01160
     65       0.00000          -0.023995           -0.65294
     66       0.00000           0.014314            0.38952
     67       0.00000           0.029294            0.79712
     68       0.00000           0.038743            1.05426
     69       0.00000           0.087601            2.38375
     70       0.00000           0.105926            2.88240
     71       0.00000           0.129182            3.51521
     72       0.00000           0.152408            4.14724
     73       0.00000           0.155947            4.24353
     74       0.00000           0.166422            4.52857
     75       0.00000           0.177162            4.82084
     76       0.00000           0.177342            4.82573
     77       0.00000           0.190057            5.17170
     78       0.00000           0.199635            5.43234
     79       0.00000           0.211639            5.75900
     80       0.00000           0.219776            5.98041
     81       0.00000           0.220527            6.00083
     82       0.00000           0.223656            6.08599
     83       0.00000           0.238994            6.50337
     84       0.00000           0.254405            6.92271
     85       0.00000           0.265838            7.23382
     86       0.00000           0.267286            7.27323
     87       0.00000           0.284915            7.75293
     88       0.00000           0.294057            8.00171
     89       0.00000           0.314625            8.56139
     90       0.00000           0.324913            8.84132
     91       0.00000           0.327139            8.90189
     92       0.00000           0.340665            9.26996
     93       0.00000           0.343931            9.35885
     94       0.00000           0.380576           10.35600
     95       0.00000           0.391943           10.66531
     96       0.00000           0.403816           10.98840

  Highest occupied state (VBM) at     -8.26411531 eV
  | Occupation number:      2.00000000

  Lowest unoccupied state (CBM) at    -3.44520579 eV
  | Occupation number:      0.00000000

  Overall HOMO-LUMO gap:      4.81890952 eV.

  Total energy components:
  | Sum of eigenvalues            :        -881.48489356 Ha      -23986.42436951 eV
  | XC energy correction          :        -146.01826809 Ha       -3973.35923692 eV
  | XC potential correction       :         190.15675587 Ha        5174.42859922 eV
  | Free-atom electrostatic energy:        -779.20508199 Ha      -21203.24909033 eV
  | Hartree energy correction     :          -8.55122888 Ha        -232.69077709 eV
  | Entropy correction            :           0.00000000 Ha           0.00000000 eV
  | ---------------------------
  | Total energy                  :       -1625.10271665 Ha      -44221.29487463 eV
  | Total energy, T -> 0          :       -1625.10271665 Ha      -44221.29487463 eV  <-- do not rely on this value for anything but (periodic) metals
  | Electronic free energy        :       -1625.10271665 Ha      -44221.29487463 eV

  Derived energy quantities:
  | Kinetic energy                :        1635.74858295 Ha       44510.98363592 eV
  | Electrostatic energy          :       -3114.83303151 Ha      -84758.91927363 eV
  | Energy correction for multipole
  | error in Hartree potential    :           0.04843773 Ha           1.31805768 eV
  | Sum of eigenvalues per atom                           :       -1998.86869746 eV
  | Total energy (T->0) per atom                          :       -3685.10790622 eV  <-- do not rely on this value for anything but (periodic) metals
  | Electronic free energy per atom                       :       -3685.10790622 eV
  Evaluating new KS density.
  Integration grid: deviation in total charge (<rho> - N_e) =   1.421085E-14

  Self-consistency convergence accuracy:
  | Change of charge density      :  0.6315E+00
  | Change of sum of eigenvalues  :  0.2267E+03 eV
  | Change of total energy        :  0.6381E+01 eV


------------------------------------------------------------
  End self-consistency iteration #     1       :  max(cpu_time)    wall_clock(cpu1)
  | Time for this iteration                     :        0.080 s           0.080 s
  | Charge density update                       :        0.027 s           0.027 s
  | Density mixing                              :        0.000 s           0.001 s
  | Hartree multipole update                    :        0.001 s           0.001 s
  | Hartree multipole summation                 :        0.017 s           0.017 s
  | Integration                                 :        0.029 s           0.029 s
  | Solution of K.-S. eqns.                     :        0.004 s           0.005 s
  | Total energy evaluation                     :        0.000 s           0.000 s

  Partial memory accounting:
  | Current value for overall tracked memory usage:
  |   Minimum:        0.273 MB (on task 23)
  |   Maximum:        0.292 MB (on task  0)
  |   Average:        0.287 MB
  | Peak value for overall tracked memory usage:
  |   Minimum:        1.253 MB (on task 18 after allocating wave)
  |   Maximum:        1.326 MB (on task 16 after allocating wave)
  |   Average:        1.293 MB
  | Largest tracked array allocation so far:
  |   Minimum:        0.652 MB (gradient_basis_wave on task 18)
  |   Maximum:        0.703 MB (gradient_basis_wave on task 15)
  |   Average:        0.681 MB
  Note:  These values currently only include a subset of arrays which are explicitly tracked.
  The "true" memory usage will be greater.
------------------------------------------------------------

------------------------------------------------------------
          Begin self-consistency iteration #    2

  Date     :  20220517, Time     :  105912.233
------------------------------------------------------------
  Pulay mixing of updated and previous charge densities.
  Renormalizing the density to the exact electron count on the 3D integration grid.
  | Formal number of electrons (from input files) :     120.0000000000
  | Integrated number of electrons on 3D grid     :     120.0000000000
  | Charge integration error                      :      -0.0000000000
  | Normalization factor for density and gradient :       1.0000000000

  Evaluating partitioned Hartree potential by multipole expansion.
  | Original multipole sum: apparent total charge =  -0.179563E-13
  | Sum of charges compensated after spline to logarithmic grids =   0.928815E-04
  | Analytical far-field extrapolation by fixed multipoles:
  | Hartree multipole sum: apparent total charge =  -0.174398E-13
  Summing up the Hartree potential.
  Time summed over all CPUs for potential: real work        0.378 s, elapsed        0.389 s
  | RMS charge density error from multipole expansion :   0.136557E-01

  Integrating Hamiltonian matrix: batch-based integration.
  Time summed over all CPUs for integration: real work        0.649 s, elapsed        0.689 s

  Updating Kohn-Sham eigenvalues and eigenvectors using ELSI and the ELPA eigensolver.
  Starting ELPA eigensolver
  Finished transformation to standard eigenproblem
  | Time :     0.001 s
  Finished solving standard eigenproblem
  | Time :     0.003 s
  Finished back-transformation of eigenvectors
  | Time :     0.000 s

  Obtaining occupation numbers and chemical potential using ELSI.
  | Chemical potential (Fermi level):    -7.11832578 eV
  Highest occupied state (VBM) at     -8.99504032 eV
  | Occupation number:      2.00000000

  Lowest unoccupied state (CBM) at    -3.73646595 eV
  | Occupation number:      0.00000000

  Overall HOMO-LUMO gap:      5.25857437 eV.

  Checking to see if s.c.f. parameters should be adjusted.

  Total energy components:
  | Sum of eigenvalues            :        -884.64201173 Ha      -24072.33392603 eV
  | XC energy correction          :        -145.54579579 Ha       -3960.50261158 eV
  | XC potential correction       :         189.53495257 Ha        5157.50847049 eV
  | Free-atom electrostatic energy:        -779.20508199 Ha      -21203.24909033 eV
  | Hartree energy correction     :          -5.18886991 Ha        -141.19633417 eV
  | Entropy correction            :           0.00000000 Ha           0.00000000 eV
  | ---------------------------
  | Total energy                  :       -1625.04680685 Ha      -44219.77349162 eV
  | Total energy, T -> 0          :       -1625.04680685 Ha      -44219.77349162 eV  <-- do not rely on this value for anything but (periodic) metals
  | Electronic free energy        :       -1625.04680685 Ha      -44219.77349162 eV

  Derived energy quantities:
  | Kinetic energy                :        1631.88490127 Ha       44405.84750815 eV
  | Electrostatic energy          :       -3111.38591233 Ha      -84665.11838820 eV
  | Energy correction for multipole
  | error in Hartree potential    :           0.05397248 Ha           1.46866593 eV
  | Sum of eigenvalues per atom                           :       -2006.02782717 eV
  | Total energy (T->0) per atom                          :       -3684.98112430 eV  <-- do not rely on this value for anything but (periodic) metals
  | Electronic free energy per atom                       :       -3684.98112430 eV
  Evaluating new KS density.
  Integration grid: deviation in total charge (<rho> - N_e) =  -4.263256E-14

  Self-consistency convergence accuracy:
  | Change of charge density      :  0.4495E+00
  | Change of sum of eigenvalues  : -0.8591E+02 eV
  | Change of total energy        :  0.1521E+01 eV


------------------------------------------------------------
  End self-consistency iteration #     2       :  max(cpu_time)    wall_clock(cpu1)
  | Time for this iteration                     :        0.082 s           0.080 s
  | Charge density update                       :        0.027 s           0.026 s
  | Density mixing                              :        0.004 s           0.001 s
  | Hartree multipole update                    :        0.001 s           0.002 s
  | Hartree multipole summation                 :        0.016 s           0.016 s
  | Integration                                 :        0.029 s           0.029 s
  | Solution of K.-S. eqns.                     :        0.004 s           0.004 s
  | Total energy evaluation                     :        0.000 s           0.000 s

  Partial memory accounting:
  | Current value for overall tracked memory usage:
  |   Minimum:        0.274 MB (on task 23)
  |   Maximum:        0.293 MB (on task  0)
  |   Average:        0.288 MB
  | Peak value for overall tracked memory usage:
  |   Minimum:        1.253 MB (on task 18 after allocating wave)
  |   Maximum:        1.326 MB (on task 16 after allocating wave)
  |   Average:        1.293 MB
  | Largest tracked array allocation so far:
  |   Minimum:        0.652 MB (gradient_basis_wave on task 18)
  |   Maximum:        0.703 MB (gradient_basis_wave on task 15)
  |   Average:        0.681 MB
  Note:  These values currently only include a subset of arrays which are explicitly tracked.
  The "true" memory usage will be greater.
------------------------------------------------------------

------------------------------------------------------------
          Begin self-consistency iteration #    3

  Date     :  20220517, Time     :  105912.318
------------------------------------------------------------
  Pulay mixing of updated and previous charge densities.
  Renormalizing the density to the exact electron count on the 3D integration grid.
  | Formal number of electrons (from input files) :     120.0000000000
  | Integrated number of electrons on 3D grid     :     120.0000000000
  | Charge integration error                      :       0.0000000000
  | Normalization factor for density and gradient :       1.0000000000

  Evaluating partitioned Hartree potential by multipole expansion.
  | Original multipole sum: apparent total charge =   0.473015E-13
  | Sum of charges compensated after spline to logarithmic grids =   0.116884E-03
  | Analytical far-field extrapolation by fixed multipoles:
  | Hartree multipole sum: apparent total charge =   0.464897E-13
  Summing up the Hartree potential.
  Time summed over all CPUs for potential: real work        0.378 s, elapsed        0.389 s
  | RMS charge density error from multipole expansion :   0.176823E-01

  Integrating Hamiltonian matrix: batch-based integration.
  Time summed over all CPUs for integration: real work        0.649 s, elapsed        0.689 s

  Updating Kohn-Sham eigenvalues and eigenvectors using ELSI and the ELPA eigensolver.
  Starting ELPA eigensolver
  Finished transformation to standard eigenproblem
  | Time :     0.000 s
  Finished solving standard eigenproblem
  | Time :     0.004 s
  Finished back-transformation of eigenvectors
  | Time :     0.000 s

  Obtaining occupation numbers and chemical potential using ELSI.
  | Chemical potential (Fermi level):    -7.11703354 eV
  Highest occupied state (VBM) at     -8.95203586 eV
  | Occupation number:      2.00000000

  Lowest unoccupied state (CBM) at    -3.77331312 eV
  | Occupation number:      0.00000000

  Overall HOMO-LUMO gap:      5.17872274 eV.

  Total energy components:
  | Sum of eigenvalues            :        -885.22813734 Ha      -24088.28321538 eV
  | XC energy correction          :        -145.54054203 Ha       -3960.35964941 eV
  | XC potential correction       :         189.52694693 Ha        5157.29062600 eV
  | Free-atom electrostatic energy:        -779.20508199 Ha      -21203.24909033 eV
  | Hartree energy correction     :          -4.59905803 Ha        -125.14673637 eV
  | Entropy correction            :           0.00000000 Ha           0.00000000 eV
  | ---------------------------
  | Total energy                  :       -1625.04587245 Ha      -44219.74806548 eV
  | Total energy, T -> 0          :       -1625.04587245 Ha      -44219.74806548 eV  <-- do not rely on this value for anything but (periodic) metals
  | Electronic free energy        :       -1625.04587245 Ha      -44219.74806548 eV

  Derived energy quantities:
  | Kinetic energy                :        1630.61217010 Ha       44371.21473103 eV
  | Electrostatic energy          :       -3110.11750053 Ha      -84630.60314710 eV
  | Energy correction for multipole
  | error in Hartree potential    :           0.06816087 Ha           1.85475153 eV
  | Sum of eigenvalues per atom                           :       -2007.35693461 eV
  | Total energy (T->0) per atom                          :       -3684.97900546 eV  <-- do not rely on this value for anything but (periodic) metals
  | Electronic free energy per atom                       :       -3684.97900546 eV
  Evaluating new KS density.
  Integration grid: deviation in total charge (<rho> - N_e) =   1.421085E-14

  Self-consistency convergence accuracy:
  | Change of charge density      :  0.1178E+00
  | Change of sum of eigenvalues  : -0.1595E+02 eV
  | Change of total energy        :  0.2543E-01 eV


------------------------------------------------------------
  End self-consistency iteration #     3       :  max(cpu_time)    wall_clock(cpu1)
  | Time for this iteration                     :        0.082 s           0.080 s
  | Charge density update                       :        0.027 s           0.027 s
  | Density mixing                              :        0.004 s           0.002 s
  | Hartree multipole update                    :        0.001 s           0.001 s
  | Hartree multipole summation                 :        0.016 s           0.017 s
  | Integration                                 :        0.029 s           0.029 s
  | Solution of K.-S. eqns.                     :        0.004 s           0.004 s
  | Total energy evaluation                     :        0.000 s           0.000 s

  Partial memory accounting:
  | Current value for overall tracked memory usage:
  |   Minimum:        0.274 MB (on task 23)
  |   Maximum:        0.293 MB (on task  0)
  |   Average:        0.288 MB
  | Peak value for overall tracked memory usage:
  |   Minimum:        1.253 MB (on task 18 after allocating wave)
  |   Maximum:        1.326 MB (on task 16 after allocating wave)
  |   Average:        1.293 MB
  | Largest tracked array allocation so far:
  |   Minimum:        0.652 MB (gradient_basis_wave on task 18)
  |   Maximum:        0.703 MB (gradient_basis_wave on task 15)
  |   Average:        0.681 MB
  Note:  These values currently only include a subset of arrays which are explicitly tracked.
  The "true" memory usage will be greater.
------------------------------------------------------------

------------------------------------------------------------
          Begin self-consistency iteration #    4

  Date     :  20220517, Time     :  105912.404
------------------------------------------------------------
  Pulay mixing of updated and previous charge densities.
  Renormalizing the density to the exact electron count on the 3D integration grid.
  | Formal number of electrons (from input files) :     120.0000000000
  | Integrated number of electrons on 3D grid     :     120.0000000000
  | Charge integration error                      :      -0.0000000000
  | Normalization factor for density and gradient :       1.0000000000

  Evaluating partitioned Hartree potential by multipole expansion.
  | Original multipole sum: apparent total charge =  -0.511633E-14
  | Sum of charges compensated after spline to logarithmic grids =   0.131509E-03
  | Analytical far-field extrapolation by fixed multipoles:
  | Hartree multipole sum: apparent total charge =  -0.324690E-14
  Summing up the Hartree potential.
  Time summed over all CPUs for potential: real work        0.378 s, elapsed        0.389 s
  | RMS charge density error from multipole expansion :   0.205955E-01

  Integrating Hamiltonian matrix: batch-based integration.
  Time summed over all CPUs for integration: real work        0.649 s, elapsed        0.689 s

  Updating Kohn-Sham eigenvalues and eigenvectors using ELSI and the ELPA eigensolver.
  Starting ELPA eigensolver
  Finished transformation to standard eigenproblem
  | Time :     0.001 s
  Finished solving standard eigenproblem
  | Time :     0.003 s
  Finished back-transformation of eigenvectors
  | Time :     0.000 s

  Obtaining occupation numbers and chemical potential using ELSI.
  | Chemical potential (Fermi level):    -7.11877614 eV
  Highest occupied state (VBM) at     -8.79273963 eV
  | Occupation number:      2.00000000

  Lowest unoccupied state (CBM) at    -3.77224896 eV
  | Occupation number:      0.00000000

  Overall HOMO-LUMO gap:      5.02049067 eV.

  Total energy components:
  | Sum of eigenvalues            :        -885.43519805 Ha      -24093.91762401 eV
  | XC energy correction          :        -145.51785798 Ha       -3959.74238522 eV
  | XC potential correction       :         189.49610328 Ha        5156.45132760 eV
  | Free-atom electrostatic energy:        -779.20508199 Ha      -21203.24909033 eV
  | Hartree energy correction     :          -4.38230070 Ha        -119.24846930 eV
  | Entropy correction            :           0.00000000 Ha           0.00000000 eV
  | ---------------------------
  | Total energy                  :       -1625.04433544 Ha      -44219.70624125 eV
  | Total energy, T -> 0          :       -1625.04433544 Ha      -44219.70624125 eV  <-- do not rely on this value for anything but (periodic) metals
  | Electronic free energy        :       -1625.04433544 Ha      -44219.70624125 eV

  Derived energy quantities:
  | Kinetic energy                :        1629.64974404 Ha       44345.02578532 eV
  | Electrostatic energy          :       -3109.17622150 Ha      -84604.98964136 eV
  | Energy correction for multipole
  | error in Hartree potential    :           0.07789004 Ha           2.11949592 eV
  | Sum of eigenvalues per atom                           :       -2007.82646867 eV
  | Total energy (T->0) per atom                          :       -3684.97552010 eV  <-- do not rely on this value for anything but (periodic) metals
  | Electronic free energy per atom                       :       -3684.97552010 eV
  Evaluating new KS density.
  Integration grid: deviation in total charge (<rho> - N_e) =   2.842171E-14

  Self-consistency convergence accuracy:
  | Change of charge density      :  0.8130E-01
  | Change of sum of eigenvalues  : -0.5634E+01 eV
  | Change of total energy        :  0.4182E-01 eV


------------------------------------------------------------
  End self-consistency iteration #     4       :  max(cpu_time)    wall_clock(cpu1)
  | Time for this iteration                     :        0.082 s           0.080 s
  | Charge density update                       :        0.027 s           0.026 s
  | Density mixing                              :        0.004 s           0.002 s
  | Hartree multipole update                    :        0.001 s           0.002 s
  | Hartree multipole summation                 :        0.016 s           0.016 s
  | Integration                                 :        0.029 s           0.029 s
  | Solution of K.-S. eqns.                     :        0.004 s           0.004 s
  | Total energy evaluation                     :        0.000 s           0.001 s

  Partial memory accounting:
  | Current value for overall tracked memory usage:
  |   Minimum:        0.274 MB (on task 23)
  |   Maximum:        0.293 MB (on task  0)
  |   Average:        0.288 MB
  | Peak value for overall tracked memory usage:
  |   Minimum:        1.253 MB (on task 18 after allocating wave)
  |   Maximum:        1.326 MB (on task 16 after allocating wave)
  |   Average:        1.293 MB
  | Largest tracked array allocation so far:
  |   Minimum:        0.652 MB (gradient_basis_wave on task 18)
  |   Maximum:        0.703 MB (gradient_basis_wave on task 15)
  |   Average:        0.681 MB
  Note:  These values currently only include a subset of arrays which are explicitly tracked.
  The "true" memory usage will be greater.
------------------------------------------------------------

------------------------------------------------------------
          Begin self-consistency iteration #    5

  Date     :  20220517, Time     :  105912.490
------------------------------------------------------------
  Pulay mixing of updated and previous charge densities.
  Renormalizing the density to the exact electron count on the 3D integration grid.
  | Formal number of electrons (from input files) :     120.0000000000
  | Integrated number of electrons on 3D grid     :     120.0000000000
  | Charge integration error                      :       0.0000000000
  | Normalization factor for density and gradient :       1.0000000000

  Evaluating partitioned Hartree potential by multipole expansion.
  | Original multipole sum: apparent total charge =   0.166281E-13
  | Sum of charges compensated after spline to logarithmic grids =   0.131610E-03
  | Analytical far-field extrapolation by fixed multipoles:
  | Hartree multipole sum: apparent total charge =   0.173168E-13
  Summing up the Hartree potential.
  Time summed over all CPUs for potential: real work        0.378 s, elapsed        0.389 s
  | RMS charge density error from multipole expansion :   0.204388E-01

  Integrating Hamiltonian matrix: batch-based integration.
  Time summed over all CPUs for integration: real work        0.649 s, elapsed        0.689 s

  Updating Kohn-Sham eigenvalues and eigenvectors using ELSI and the ELPA eigensolver.
  Starting ELPA eigensolver
  Finished transformation to standard eigenproblem
  | Time :     0.000 s
  Finished solving standard eigenproblem
  | Time :     0.003 s
  Finished back-transformation of eigenvectors
  | Time :     0.001 s

  Obtaining occupation numbers and chemical potential using ELSI.
  | Chemical potential (Fermi level):    -7.10880976 eV
  Highest occupied state (VBM) at     -8.84963621 eV
  | Occupation number:      2.00000000

  Lowest unoccupied state (CBM) at    -3.74565523 eV
  | Occupation number:      0.00000000

  Overall HOMO-LUMO gap:      5.10398097 eV.

  Total energy components:
  | Sum of eigenvalues            :        -885.33945754 Ha      -24091.31239202 eV
  | XC energy correction          :        -145.51208062 Ha       -3959.58517501 eV
  | XC potential correction       :         189.48864227 Ha        5156.24830306 eV
  | Free-atom electrostatic energy:        -779.20508199 Ha      -21203.24909033 eV
  | Hartree energy correction     :          -4.47627913 Ha        -121.80575252 eV
  | Entropy correction            :           0.00000000 Ha           0.00000000 eV
[...]
   Total forces(   7)            : -0.469605E+01  0.153131E+01 -0.330498E+01
  atom #    8
   Hellmann-Feynman              :  0.366854E+01  0.344777E+01 -0.664879E+00
   Ionic forces                  :  0.000000E+00  0.000000E+00  0.000000E+00
   Multipole                     :  0.263341E+00  0.247353E+00 -0.474691E-01
   Hartree pot. SCF incomplete   : -0.102159E-05 -0.956914E-06  0.192452E-06
   Pulay + GGA                   : -0.415769E+01 -0.390668E+01  0.752980E+00
   ----------------------------------------------------------------
   Total forces(   8)            : -0.225813E+00 -0.211562E+00  0.406317E-01
  atom #    9
   Hellmann-Feynman              : -0.703745E+00 -0.358936E+01 -0.409951E+01
   Ionic forces                  :  0.000000E+00  0.000000E+00  0.000000E+00
   Multipole                     :  0.538680E+00 -0.211309E+00 -0.438195E+00
   Hartree pot. SCF incomplete   :  0.100653E-05 -0.768353E-06  0.625963E-06
   Pulay + GGA                   : -0.944494E+00  0.114648E+01 -0.666308E+00
   ----------------------------------------------------------------
   Total forces(   9)            : -0.110956E+01 -0.265419E+01 -0.520401E+01
  atom #   10
   Hellmann-Feynman              : -0.277560E+01  0.318626E+00  0.472714E+01
   Ionic forces                  :  0.000000E+00  0.000000E+00  0.000000E+00
   Multipole                     : -0.100403E+00  0.622706E+00  0.358843E+00
   Hartree pot. SCF incomplete   : -0.818951E-06  0.933566E-06 -0.649223E-06
   Pulay + GGA                   :  0.120818E+01 -0.897889E+00  0.617748E+00
   ----------------------------------------------------------------
   Total forces(  10)            : -0.166782E+01  0.434434E-01  0.570373E+01
  atom #   11
   Hellmann-Feynman              :  0.220175E+01  0.962412E+00  0.204372E+01
   Ionic forces                  :  0.000000E+00  0.000000E+00  0.000000E+00
   Multipole                     :  0.600301E+00  0.318614E+00  0.432702E+00
   Hartree pot. SCF incomplete   : -0.515317E-06 -0.771949E-08 -0.957852E-06
   Pulay + GGA                   : -0.509528E+01 -0.227847E+01 -0.461073E+01
   ----------------------------------------------------------------
   Total forces(  11)            : -0.229323E+01 -0.997445E+00 -0.213431E+01
  atom #   12
   Hellmann-Feynman              : -0.220274E+01 -0.209813E+01  0.460186E+00
   Ionic forces                  :  0.000000E+00  0.000000E+00  0.000000E+00
   Multipole                     : -0.568221E+00 -0.508987E+00  0.477770E-01
   Hartree pot. SCF incomplete   :  0.495910E-06  0.501576E-06 -0.165879E-06
   Pulay + GGA                   :  0.500738E+01  0.486792E+01 -0.126678E+01
   ----------------------------------------------------------------
   Total forces(  12)            :  0.223642E+01  0.226079E+01 -0.758821E+00


  Self-consistency convergence accuracy:
  | Change of charge density      :  0.3363E-06
  | Change of sum of eigenvalues  :  0.1862E-04 eV
  | Change of total energy        : -0.2450E-07 eV
  | Change of forces              :  0.8844E-06 eV/A

  Writing Kohn-Sham eigenvalues.

  State    Occupation    Eigenvalue [Ha]    Eigenvalue [eV]
      1       2.00000         -55.629960        -1513.76823
      2       2.00000         -55.629947        -1513.76788
      3       2.00000         -55.509307        -1510.48510
      4       2.00000         -24.281921         -660.74468
      5       2.00000         -24.281917         -660.74459
      6       2.00000         -24.281916         -660.74455
      7       2.00000         -24.281915         -660.74452
      8       2.00000         -24.221758         -659.10756
      9       2.00000         -24.221748         -659.10731
     10       2.00000         -24.216753         -658.97137
     11       2.00000         -24.216746         -658.97118
     12       2.00000         -24.156014         -657.31858
     13       2.00000          -4.082001         -111.07691
     14       2.00000          -4.081990         -111.07660
     15       2.00000          -3.993028         -108.65583
     16       2.00000          -2.676535          -72.83223
     17       2.00000          -2.676522          -72.83187
     18       2.00000          -2.673547          -72.75091
     19       2.00000          -2.673535          -72.75059
     20       2.00000          -2.670652          -72.67213
     21       2.00000          -2.670641          -72.67184
     22       2.00000          -2.586097          -70.37127
     23       2.00000          -2.584956          -70.34024
     24       2.00000          -2.581933          -70.25797
     25       2.00000          -1.215754          -33.08234
     26       2.00000          -1.186659          -32.29064
     27       2.00000          -1.176357          -32.01030
     28       2.00000          -1.155569          -31.44464
     29       2.00000          -1.069961          -29.11512
     30       2.00000          -1.069927          -29.11420
     31       2.00000          -1.063976          -28.95225
     32       2.00000          -1.063947          -28.95148
     33       2.00000          -1.023349          -27.84676
     34       2.00000          -0.592331          -16.11816
     35       2.00000          -0.560601          -15.25474
     36       2.00000          -0.556175          -15.13430
     37       2.00000          -0.539347          -14.67637
     38       2.00000          -0.519024          -14.12337
     39       2.00000          -0.511032          -13.90589
     40       2.00000          -0.492935          -13.41343
     41       2.00000          -0.474100          -12.90091
     42       2.00000          -0.472947          -12.86955
     43       2.00000          -0.450359          -12.25489
     44       2.00000          -0.443137          -12.05838
     45       2.00000          -0.442968          -12.05377
     46       2.00000          -0.436730          -11.88402
     47       2.00000          -0.432441          -11.76732
     48       2.00000          -0.415194          -11.29799
     49       2.00000          -0.413818          -11.26057
     50       2.00000          -0.378854          -10.30914
     51       2.00000          -0.378491          -10.29927
     52       2.00000          -0.377753          -10.27917
     53       2.00000          -0.377615          -10.27543
     54       2.00000          -0.369576          -10.05667
     55       2.00000          -0.369209          -10.04669
     56       2.00000          -0.368871          -10.03750
     57       2.00000          -0.365026           -9.93286
     58       2.00000          -0.364893           -9.92923
     59       2.00000          -0.325844           -8.86666
     60       2.00000          -0.324453           -8.82881
     61       0.00000          -0.137584           -3.74385
     62       0.00000          -0.122521           -3.33396
     63       0.00000          -0.049033           -1.33426
     64       0.00000          -0.040397           -1.09926
     65       0.00000          -0.029413           -0.80037
     66       0.00000           0.010065            0.27388
     67       0.00000           0.023250            0.63267
     68       0.00000           0.032266            0.87801
     69       0.00000           0.083338            2.26774
     70       0.00000           0.102576            2.79124
     71       0.00000           0.123649            3.36467
     72       0.00000           0.149647            4.07211
     73       0.00000           0.154269            4.19788
     74       0.00000           0.162997            4.43538
     75       0.00000           0.168393            4.58221
     76       0.00000           0.170606            4.64242
     77       0.00000           0.181417            4.93661
     78       0.00000           0.192015            5.22499
     79       0.00000           0.202758            5.51731
     80       0.00000           0.217283            5.91256
     81       0.00000           0.217780            5.92610
     82       0.00000           0.218179            5.93696
     83       0.00000           0.231586            6.30178
     84       0.00000           0.250579            6.81861
     85       0.00000           0.259124            7.05112
     86       0.00000           0.260579            7.09072
     87       0.00000           0.278549            7.57970
     88       0.00000           0.286882            7.80647
     89       0.00000           0.310618            8.45234
     90       0.00000           0.318997            8.68035
     91       0.00000           0.320638            8.72500
     92       0.00000           0.338051            9.19884
     93       0.00000           0.338115            9.20058
     94       0.00000           0.375209           10.20997
     95       0.00000           0.387110           10.53381
     96       0.00000           0.395399           10.75936

  Highest occupied state (VBM) at     -8.82881300 eV
  | Occupation number:      2.00000000

  Lowest unoccupied state (CBM) at    -3.74385427 eV
  | Occupation number:      0.00000000

  Overall HOMO-LUMO gap:      5.08495873 eV.
  | Chemical Potential                          :    -7.10619341 eV

  Self-consistency cycle converged.


------------------------------------------------------------
  End self-consistency iteration #    13       :  max(cpu_time)    wall_clock(cpu1)
  | Time for this iteration                     :        0.261 s           0.259 s
  | Charge density & force component update     :        0.140 s           0.140 s
  | Density mixing                              :        0.005 s           0.004 s
  | Hartree multipole update                    :        0.001 s           0.001 s
  | Hartree multipole summation                 :        0.049 s           0.049 s
  | Hartree pot. SCF incomplete forces          :        0.032 s           0.031 s
  | Integration                                 :        0.029 s           0.029 s
  | Solution of K.-S. eqns.                     :        0.004 s           0.004 s
  | Total energy evaluation                     :        0.000 s           0.000 s

  Partial memory accounting:
  | Current value for overall tracked memory usage:
  |   Minimum:        0.274 MB (on task 23)
  |   Maximum:        0.293 MB (on task  0)
  |   Average:        0.289 MB
  | Peak value for overall tracked memory usage:
  |   Minimum:        2.721 MB (on task 18 after allocating hessian_basis_wave)
  |   Maximum:        2.881 MB (on task 15 after allocating hessian_basis_wave)
  |   Average:        2.812 MB
  | Largest tracked array allocation so far:
  |   Minimum:        1.304 MB (hessian_basis_wave on task 18)
  |   Maximum:        1.406 MB (hessian_basis_wave on task 15)
  |   Average:        1.361 MB
  Note:  These values currently only include a subset of arrays which are explicitly tracked.
  The "true" memory usage will be greater.
------------------------------------------------------------
  Removing unitary transformations (pure translations, rotations) from forces on atoms.
  Atomic forces before filtering:
  | Net force on center of mass :   0.652319E-03 -0.181104E-02 -0.644417E-02 eV/A
  | Net torque on center of mass:  -0.687415E-02 -0.479171E-02 -0.123510E-02 eV
  Atomic forces after filtering:
  | Net force on center of mass :  -0.356812E-15  0.713624E-15  0.356812E-15 eV/A
  | Net torque on center of mass:   0.755268E-15 -0.377634E-15 -0.151054E-14 eV

  Energy and forces in a compact form:
  | Total energy uncorrected      :         -0.442197040048503E+05 eV
  | Total energy corrected        :         -0.442197040048503E+05 eV  <-- do not rely on this value for anything but (periodic) metals
  | Electronic free energy        :         -0.442197040048503E+05 eV
  Total atomic forces (unitary forces cleaned) [eV/Ang]:
  |    1          0.218371835443607E+00         -0.483360947765549E+00          0.148231360667745E+01
  |    2          0.457959777731468E+01          0.430253342499519E+01         -0.832422489343870E+00
  |    3         -0.745050627240491E+00         -0.112546640897817E-01         -0.138527943614471E+01
  |    4          0.246059931468929E+01          0.215186452854044E+01         -0.911859285632121E-01
  |    5          0.191919170046671E+01         -0.414122669455371E+01          0.380878530891903E+01
  |    6         -0.676557946938843E+00         -0.179133332587895E+01          0.267232818533439E+01
  |    7         -0.469625104804347E+01          0.153146014926848E+01         -0.330425277157307E+01
  |    8         -0.226030273693111E+00         -0.211218366226672E+00          0.412673278238229E-01
  |    9         -0.110964983116918E+01         -0.265381570925784E+01         -0.520356556570334E+01
  |   10         -0.166786939294561E+01          0.434056741433399E-01          0.570437870929697E+01
  |   11         -0.229306310236470E+01         -0.997579756017784E+00         -0.213388796253731E+01
  |   12          0.223671159448111E+01          0.226052568684284E+01         -0.758478984186152E+00

  ------------------------------------ 
  Start decomposition of the XC Energy 
  ------------------------------------ 
  X and C from original XC functional choice 
  Hartree-Fock Energy :          0.000000000 Ha              0.000000000 eV
  X Energy            :       -140.541777335 Ha          -3824.336341389 eV
  C Energy            :         -4.974096744 Ha           -135.352059033 eV
  Total XC Energy     :       -145.515874079 Ha          -3959.688400422 eV
  ------------------------------------ 
  LDA X and C from self-consistent density 
  X Energy LDA        :       -133.143137099 Ha          -3623.009097136 eV
  C Energy LDA        :         -8.844552408 Ha           -240.672516312 eV
  ------------------------------------ 
  End decomposition of the XC Energy 
  ------------------------------------ 

------------------------------------------------------------

------------------------------------------------------------------------------
  Final output of selected total energy values:

  The following output summarizes some interesting total energy values
  at the end of a run (AFTER all relaxation, molecular dynamics, etc.).

  | Total energy of the DFT / Hartree-Fock s.c.f. calculation      :         -44219.704004850 eV
  | Final zero-broadening corrected energy (caution - metals only) :         -44219.704004850 eV
  | For reference only, the value of 1 Hartree used in FHI-aims is :             27.211384500 eV

  Before relying on these values, please be sure to understand exactly which
  total energy value is referred to by a given number. Different objects may
  all carry the same name 'total energy'. Definitions:

  Total energy of the DFT / Hartree-Fock s.c.f. calculation:
  | Note that this energy does not include ANY quantities calculated after the
  | s.c.f. cycle, in particular not ANY RPA, MP2, etc. many-body perturbation terms.

  Final zero-broadening corrected energy:
  | For metallic systems only, a broadening of the occupation numbers at the Fermi
  | level can be extrapolated back to zero broadening by an electron-gas inspired
  | formula. For all systems that are not real metals, this value can be
  | meaningless and should be avoided.

------------------------------------------------------------------------------
  Methods described in the following list of references were used in this FHI-aims run.
  If you publish the results, please make sure to cite these reference if they apply.
  FHI-aims is an academic code, and for our developers (often, Ph.D. students
  and postdocs), scientific credit in the community is essential.
  Thank you for helping us!

  For any use of FHI-aims, please cite:

    Volker Blum, Ralf Gehrke, Felix Hanke, Paula Havu, Ville Havu,
    Xinguo Ren, Karsten Reuter, and Matthias Scheffler
    'Ab initio molecular simulations with numeric atom-centered orbitals'
    Computer Physics Communications 180, 2175-2196 (2009)
    http://dx.doi.org/10.1016/j.cpc.2009.06.022


  The ELSI infrastructure was used in your run to solve the Kohn-Sham electronic structure.
  Please check out http://elsi-interchange.org to learn more.
  If scalability is important for your project, please acknowledge ELSI by citing:

    V. W-z. Yu, F. Corsetti, A. Garcia, W. P. Huhn, M. Jacquelin, W. Jia,
    B. Lange, L. Lin, J. Lu, W. Mi, A. Seifitokaldani, A. Vazquez-Mayagoitia,
    C. Yang, H. Yang, and V. Blum
    'ELSI: A unified software interface for Kohn-Sham electronic structure solvers'
    Computer Physics Communications 222, 267-285 (2018).
    http://dx.doi.org/10.1016/j.cpc.2017.09.007


  For the real-space grid partitioning and parallelization used in this calculation, please cite:

    Ville Havu, Volker Blum, Paula Havu, and Matthias Scheffler,
    'Efficient O(N) integration for all-electron electronic structure calculation'
    'using numerically tabulated basis functions'
    Journal of Computational Physics 228, 8367-8379 (2009).
    http://dx.doi.org/10.1016/j.jcp.2009.08.008

  Of course, there are many other important community references, e.g., those cited in the
  above references. Our list is limited to references that describe implementations in the
  FHI-aims code. The reason is purely practical (length of this list) - please credit others as well.

------------------------------------------------------------
          Leaving FHI-aims.
          Date     :  20220517, Time     :  105913.638

          Computational steps:
          | Number of self-consistency cycles          :           13
          | Number of SCF (re)initializations          :            1

          Detailed time accounting                     :  max(cpu_time)    wall_clock(cpu1)
          | Total time                                  :        1.802 s           1.862 s
          | Preparation time                            :        0.183 s           0.183 s
          | Boundary condition initalization            :        0.000 s           0.000 s
          | Grid partitioning                           :        0.036 s           0.036 s
          | Preloading free-atom quantities on grid     :        0.015 s           0.015 s
          | Free-atom superposition energy              :        0.005 s           0.005 s
          | Total time for integrations                 :        0.423 s           0.422 s
          | Total time for solution of K.-S. equations  :        0.065 s           0.065 s
          | Total time for density & force components   :        0.601 s           0.601 s
          | Total time for mixing                       :        0.057 s           0.029 s
          | Total time for Hartree multipole update     :        0.017 s           0.018 s
          | Total time for Hartree multipole sum        :        0.279 s           0.280 s
          | Total time for total energy evaluation      :        0.002 s           0.002 s
          | Total time NSC force correction             :        0.064 s           0.063 s
          | Total time for scaled ZORA corrections      :        0.000 s           0.000 s

          Partial memory accounting:
          | Residual value for overall tracked memory usage across tasks:     0.000000 MB (should be 0.000000 MB)
          | Peak values for overall tracked memory usage:
          |   Minimum:        2.721 MB (on task 18 after allocating hessian_basis_wave)
          |   Maximum:        2.881 MB (on task 15 after allocating hessian_basis_wave)
          |   Average:        2.812 MB
          | Largest tracked array allocation:
          |   Minimum:        1.304 MB (hessian_basis_wave on task 18)
          |   Maximum:        1.406 MB (hessian_basis_wave on task 15)
          |   Average:        1.361 MB
          Note:  These values currently only include a subset of arrays which are explicitly tracked.
          The "true" memory usage will be greater.

          Have a nice day.
------------------------------------------------------------
