------------------------------------------------------------
          Invoking FHI-aims ...

          When using FHI-aims, please cite the following reference:

            Volker Blum, Ralf Gehrke, Felix Hanke, Paula Havu,
            Ville Havu, Xinguo Ren, Karsten Reuter, and Matthias Scheffler,
            'Ab Initio Molecular Simulations with Numeric Atom-Centered Orbitals',
            Computer Physics Communications 180, 2175-2196 (2009)

          In addition, many other developments in FHI-aims are likely important for
          your particular application. A partial list of references is given at the end of
          this file. Thank you for giving credit to the authors of these developments.

          For any questions about FHI-aims, please visit our slack channel at

            https://fhi-aims.slack.com

          and our main development and support site at

            https://aims-git.rz-berlin.mpg.de .

          The latter site, in particular, has a wiki to collect information, as well
          as an issue tracker to log discussions, suggest improvements, and report issues
          or bugs. https://aims-git.rz-berlin.mpg.de is also the main development site
          of the project and all new and updated code versions can be obtained there.
          Please send an email to aims-coordinators@fhi-berlin.mpg.de and we will add
          you to these sites. They are for you and everyone is welcome there.

------------------------------------------------------------



  Date     :  20220517, Time     :  111237.049
  Time zero on CPU 1             :   0.376380000000000E-01  s.
  Internal wall clock time zero  :           422017957.049  s.

  FHI-aims created a unique identifier for this run for later identification
  aims_uuid : 52E81AB5-2BD3-4FA6-AB75-1FD66CC030FA

  Build configuration of the current instance of FHI-aims
  -------------------------------------------------------
  FHI-aims version      : 210914
  Commit number         : GITDIR-NOTFOUND
  CMake host system     : Linux-3.10.0-693.17.1.el7.x86_64
  CMake version         : 3.21.1
  Fortran compiler      : /shared/ucl/apps/intel/2018.Update3/impi/2018.3.222/intel64/bin/mpiifort (Intel) version 18.0.3.20180410
  Fortran compiler flags: -O3 -ip -fp-model precise
  C compiler            : /shared/ucl/apps/intel/2018.Update3/compilers_and_libraries_2018.3.222/linux/bin/intel64/icc (Intel) version 18.0.3.20180410
  C compiler flags      : -O3 -ip -fp-model precise -std=gnu99
  ELPA2 kernel          : AVX2
  Using MPI
  Using ScaLAPACK
  Using LibXC
  Using i-PI
  Using RLSY
  Linking against: /shared/ucl/apps/intel/2019.Update5/compilers_and_libraries_2019.5.281/linux/mkl/lib/intel64/libmkl_intel_lp64.so
                   /shared/ucl/apps/intel/2019.Update5/compilers_and_libraries_2019.5.281/linux/mkl/lib/intel64/libmkl_sequential.so
                   /shared/ucl/apps/intel/2019.Update5/compilers_and_libraries_2019.5.281/linux/mkl/lib/intel64/libmkl_core.so
                   /shared/ucl/apps/intel/2019.Update5/compilers_and_libraries_2019.5.281/linux/mkl/lib/intel64/libmkl_blacs_intelmpi_lp64.so
                   /shared/ucl/apps/intel/2019.Update5/compilers_and_libraries_2019.5.281/linux/mkl/lib/intel64/libmkl_scalapack_lp64.so

  Using       24 parallel tasks.
  Task        0 on host node-k98a-025 reporting.
  Task        1 on host node-k98a-025 reporting.
  Task        2 on host node-k98a-025 reporting.
  Task        3 on host node-k98a-025 reporting.
  Task        4 on host node-k98a-025 reporting.
  Task        5 on host node-k98a-025 reporting.
  Task        6 on host node-k98a-025 reporting.
  Task        7 on host node-k98a-025 reporting.
  Task        8 on host node-k98a-025 reporting.
  Task        9 on host node-k98a-025 reporting.
  Task       10 on host node-k98a-025 reporting.
  Task       11 on host node-k98a-025 reporting.
  Task       12 on host node-k98a-025 reporting.
  Task       13 on host node-k98a-025 reporting.
  Task       14 on host node-k98a-025 reporting.
  Task       15 on host node-k98a-025 reporting.
  Task       16 on host node-k98a-025 reporting.
  Task       17 on host node-k98a-025 reporting.
  Task       18 on host node-k98a-025 reporting.
  Task       19 on host node-k98a-025 reporting.
  Task       20 on host node-k98a-025 reporting.
  Task       21 on host node-k98a-025 reporting.
  Task       22 on host node-k98a-025 reporting.
  Task       23 on host node-k98a-025 reporting.

  Performing system and environment tests:
  | Environment variable OMP_NUM_THREADS correctly set to 1.
  | Checking for ScaLAPACK...
  | Testing pdtran()...
  | All pdtran() tests passed.

  Obtaining array dimensions for all initial allocations:
  
  -----------------------------------------------------------------------
  Parsing control.in (first pass over file, find array dimensions only).
  The contents of control.in will be repeated verbatim below
  unless switched off by setting 'verbatim_writeout .false.' .
  in the first line of control.in .
  -----------------------------------------------------------------------
  
  #########################################################################################  Physical model
  #########################################################################################
  xc                 pbesol
  spin               none
  relativistic       atomic_zora scalar
  charge             0.0
  #  SCF convergence
  occupation_type    gaussian 0.01
  mixer              pulay
  n_max_pulay        10
  charge_mix_param   0.5
  sc_accuracy_rho    1E-5
  sc_accuracy_eev    1E-3
  sc_accuracy_etot   1E-6
  sc_accuracy_forces 1E-4
  sc_iter_limit      1500
  #  Relaxation
  #relax_geometry   bfgs 1.e-3
  
  ################################################################################
  #
  #  FHI-aims code project
  #  VB, Fritz-Haber Institut, 2009
  #
  #  Suggested "light" defaults for Al atom (to be pasted into control.in file)
  #  Be sure to double-check any results obtained with these settings for post-processing,
  #  e.g., with the "tight" defaults and larger basis sets.
  #
  ################################################################################
    species        Al
  #     global species definitions
      nucleus             13
      mass                26.9815386
  #
      l_hartree           4
  #
      cut_pot             3.5          1.5  1.0
      basis_dep_cutoff    1e-4
  #
      radial_base         41 5.0
      radial_multiplier   1
      angular_grids       specified
        division   0.6594  110
        division   0.8170  194
        division   0.9059  302
  #      division   1.0363  434
  #      division   1.1443  590
  #      division   1.2621  770
  #      division   2.8177  974
  #      outer_grid   974
        outer_grid   302
  ################################################################################
  #
  #  Definition of "minimal" basis
  #
  ################################################################################
  #     valence basis states
      valence      3  s   2.
      valence      3  p   1.
  #     ion occupancy
      ion_occ      3  s   1.
      ion_occ      2  p   6.
  ################################################################################
  #
  #  Suggested additional basis functions. For production calculations,
  #  uncomment them one after another (the most important basis functions are
  #  listed first).
  #
  #  Constructed for dimers: 2.0 A, 2.5 A, 3.0 A, 3.75 A, 4.5 A
  #
  ################################################################################
  #  "First tier" - improvements: -199.47 meV to -10.63 meV
       ionic 3 d auto
       ionic 3 p auto
  #     hydro 4 f 4.7
       ionic 3 s auto
  #  "Second tier" - improvements: -5.35 meV to -1.57 meV
  #     hydro 5 g 7
  #     hydro 3 d 6
  #     hydro 2 s 11.6
  #     hydro 2 p 0.9
  #  "Third tier" - improvements: -0.63 meV to -0.20 meV
  #     hydro 5 f 7.6
  #     hydro 4 p 7.2
  #     hydro 4 s 3.7
  #     hydro 4 d 7.6
  #  "Fourth tier" - improvements: -0.17 meV to -0.08 meV
  #     hydro 4 d 13.6
  #     hydro 5 g 11.2
  #     hydro 4 d 0.9
  #     hydro 1 s 0.4
  #     hydro 4 p 0.1
  #     hydro 5 f 9.8
  #  Further basis functions that fell out of the optimization - noise level...
  #     hydro 4 p 5
  
  ################################################################################
  #
  #  FHI-aims code project
  #  VB, Fritz-Haber Institut, 2009
  #
  #  Suggested "light" defaults for F atom (to be pasted into control.in file)
  #  Be sure to double-check any results obtained with these settings for post-processing,
  #  e.g., with the "tight" defaults and larger basis sets.
  #
  ################################################################################
    species        F
  #     global species definitions
      nucleus             9
      mass                18.9984032
  #
      l_hartree           4
  #
      cut_pot             3.5  1.5  1.0
      basis_dep_cutoff    1e-4
  #
      radial_base         37 5.0
      radial_multiplier   1
      angular_grids specified
        division   0.4014  110
        division   0.5291  194
        division   0.6019  302
  #      division   0.6814  434
  #      division   0.7989  590
  #      division   0.8965  770
  #      division   1.3427  974
  #      outer_grid   974
        outer_grid   302
  ################################################################################
  #
  #  Definition of "minimal" basis
  #
  ################################################################################
  #     valence basis states
      valence      2  s   2.
      valence      2  p   5.
  #     ion occupancy
      ion_occ      2  s   1.
      ion_occ      2  p   4.
  ################################################################################
  #
  #  Suggested additional basis functions. For production calculations,
  #  uncomment them one after another (the most important basis functions are
  #  listed first).
  #
  #  Constructed for dimers: 1.2 A, 1.418 A, 1.75 A, 2.25 A, 3.25 A
  #
  ################################################################################
  #  "First tier" - improvements: -149.44 meV to -45.88 meV
       hydro 2 p 1.7
       hydro 3 d 7.4
       hydro 3 s 6.8
  #  "Second tier" - improvements: -12.96 meV to -1.56 meV
  #     hydro 4 f 11.2
  #     ionic 2 p auto
  #     hydro 1 s 0.75
  #     hydro 4 d 8.8
  #     hydro 5 g 16.8
  #  "Third tier" - improvements: -0.58 meV to -0.05 meV
  #     hydro 3 p 6.2
  #     hydro 3 s 3.2
  #     hydro 4 f 9.6
  #     hydro 3 s 19.6
  #     hydro 4 d 8.6
  #     hydro 5 g 14.4
  # Further basis functions: -0.05 meV and below
  #     hydro 3 p 4.2
  
  -----------------------------------------------------------------------
  Completed first pass over input file control.in .
  -----------------------------------------------------------------------
  
  
  -----------------------------------------------------------------------
  Parsing geometry.in (first pass over file, find array dimensions only).
  The contents of geometry.in will be repeated verbatim below
  unless switched off by setting 'verbatim_writeout .false.' .
  in the first line of geometry.in .
  -----------------------------------------------------------------------
  
  atom 1.285894062 0.089720916 2.360043837 Al
  atom 1.196167600 1.228845400 -0.322965000 Al
  atom -0.375075985 0.820908164 -2.395320273 Al
  atom -1.591016204 -0.299303744 -2.224027277 F
  atom 2.085069392 -0.410158754 0.827530313 F
  atom 0.030132184 1.768558854 -3.719588794 F
  atom -0.289548226 1.919274481 -0.705387495 F
  atom 2.589310953 2.420241709 -0.316087444 F
  atom 1.293083423 0.073472728 -1.541985177 F
  atom 0.424028871 1.527086223 1.705575502 F
  atom 2.610657930 0.624207419 3.686918609 F
  atom -0.053210441 -1.274078859 2.835768386 F
  
  -----------------------------------------------------------------------
  Completed first pass over input file geometry.in .
  -----------------------------------------------------------------------
  

  Basic array size parameters:
  | Number of species                 :        2
  | Number of atoms                   :       12
  | Max. basis fn. angular momentum   :        2
  | Max. atomic/ionic basis occupied n:        3
  | Max. number of basis fn. types    :        3
  | Max. radial fns per species/type  :        5
  | Max. logarithmic grid size        :     1340
  | Max. radial integration grid size :       41
  | Max. angular integration grid size:      302
  | Max. angular grid division number :        8
  | Radial grid for Hartree potential :     1340
  | Number of spin channels           :        1

------------------------------------------------------------
          Reading file control.in.
------------------------------------------------------------
  XC: Using PBEsol gradient-corrected functionals.
  Spin treatment: No spin polarisation.
  Scalar relativistic treatment of kinetic energy: on-site free-atom approximation to ZORA.
  Charge =   0.000000E+00: Neutral system requested explicitly.
  Occupation type: Gaussian broadening, width =   0.100000E-01 eV.
  Using pulay charge density mixing.
  Pulay mixing - number of memorized iterations:   10
  Charge density mixing - mixing parameter:     0.5000
  Convergence accuracy of self-consistent charge density:  0.1000E-04
  Convergence accuracy of sum of eigenvalues:  0.1000E-02
  Convergence accuracy of total energy:  0.1000E-05
  Convergence accuracy of forces:  0.1000E-03
  Maximum number of s.-c. iterations  :  1500
 
  Reading configuration options for species Al                  .
  | Found nuclear charge :  13.0000
  | Found atomic mass :    26.9815386000000      amu
  | Found l_max for Hartree potential  :   4
  | Found cutoff potl. onset [A], width [A], scale factor :    3.50000    1.50000    1.00000
  | Threshold for basis-dependent cutoff potential is   0.100000E-03
  | Found data for basic radial integration grid :    41 points, outermost radius =    5.000 A
  | Found multiplier for basic radial grid :   1
  | Found angular grid specification: user-specified.
  | Specified grid contains     4 separate shells.
  | Check grid settings after all constraints further below.
  | Found free-atom valence shell :  3 s   2.000
  | Found free-atom valence shell :  3 p   1.000
  | Found free-ion valence shell :  3 s   1.000
  | Found free-ion valence shell :  2 p   6.000
  | Found ionic basis function :  3 d , default cutoff radius.
  | Found ionic basis function :  3 p , default cutoff radius.
  | Found ionic basis function :  3 s , default cutoff radius.
  Species Al                  : Missing cutoff potential type.
  Defaulting to exp(1/x)/(1-x)^2 type cutoff potential.
  Species Al: No 'logarithmic' tag. Using default grid for free atom:
  | Default logarithmic grid data [bohr] : 0.1000E-03 0.1000E+03 0.1012E+01
  | Will include ionic basis functions of  2.0-fold positive Al                   ion.
  Species Al: On-site basis accuracy parameter (for Gram-Schmidt orthonormalisation) not specified.
  Using default value basis_acc =  0.1000000E-03.
  Species Al                  : Using default innermost maximum threshold i_radial=  2 for radial functions.
  Species Al                  : Default cutoff onset for free atom density etc. : 0.35000000E+01 AA.
  Species Al                  : Basic radial grid will be enhanced according to radial_multiplier =   1, to contain    41 grid points.
 
  Reading configuration options for species F                   .
  | Found nuclear charge :   9.0000
  | Found atomic mass :    18.9984032000000      amu
  | Found l_max for Hartree potential  :   4
  | Found cutoff potl. onset [A], width [A], scale factor :    3.50000    1.50000    1.00000
  | Threshold for basis-dependent cutoff potential is   0.100000E-03
  | Found data for basic radial integration grid :    37 points, outermost radius =    5.000 A
  | Found multiplier for basic radial grid :   1
  | Found angular grid specification: user-specified.
  | Specified grid contains     4 separate shells.
  | Check grid settings after all constraints further below.
  | Found free-atom valence shell :  2 s   2.000
  | Found free-atom valence shell :  2 p   5.000
  | Found free-ion valence shell :  2 s   1.000
  | Found free-ion valence shell :  2 p   4.000
  | Found hydrogenic basis function :  2 p   1.700
  | Found hydrogenic basis function :  3 d   7.400
  | Found hydrogenic basis function :  3 s   6.800
  Species F                   : Missing cutoff potential type.
  Defaulting to exp(1/x)/(1-x)^2 type cutoff potential.
  Species F : No 'logarithmic' tag. Using default grid for free atom:
  | Default logarithmic grid data [bohr] : 0.1000E-03 0.1000E+03 0.1012E+01
  Species F : On-site basis accuracy parameter (for Gram-Schmidt orthonormalisation) not specified.
  Using default value basis_acc =  0.1000000E-03.
  Species F                   : Using default innermost maximum threshold i_radial=  2 for radial functions.
  Species F                   : Default cutoff onset for free atom density etc. : 0.35000000E+01 AA.
  Species F                   : Basic radial grid will be enhanced according to radial_multiplier =   1, to contain    37 grid points.
 
  Finished reading input file 'control.in'.
 
------------------------------------------------------------


------------------------------------------------------------
          Reading geometry description geometry.in.
------------------------------------------------------------
  | The smallest distance between any two atoms is         1.66214519 AA.
  | The first atom of this pair is atom number                      3 .
  | The second atom of this pair is atom number                     4 .
  Input structure read successfully.
  The structure contains       12 atoms,  and a total of        120.000 electrons.

  Input geometry:
  | No unit cell requested.
  | Atomic structure:
  |       Atom                x [A]            y [A]            z [A]
  |    1: Species Al            1.28589406        0.08972092        2.36004384
  |    2: Species Al            1.19616760        1.22884540       -0.32296500
  |    3: Species Al           -0.37507599        0.82090816       -2.39532027
  |    4: Species F            -1.59101620       -0.29930374       -2.22402728
  |    5: Species F             2.08506939       -0.41015875        0.82753031
  |    6: Species F             0.03013218        1.76855885       -3.71958879
  |    7: Species F            -0.28954823        1.91927448       -0.70538749
  |    8: Species F             2.58931095        2.42024171       -0.31608744
  |    9: Species F             1.29308342        0.07347273       -1.54198518
  |   10: Species F             0.42402887        1.52708622        1.70557550
  |   11: Species F             2.61065793        0.62420742        3.68691861
  |   12: Species F            -0.05321044       -1.27407886        2.83576839

 
  Finished reading input file 'control.in'.
 

------------------------------------------------------------
          Reading geometry description geometry.in.
------------------------------------------------------------
 
  Consistency checks for stacksize environment parameter are next.
 
  | Maximum stacksize for task 0: unlimited
  | Maximum stacksize for task 1: unlimited
  | Maximum stacksize for task 2: unlimited
  | Maximum stacksize for task 3: unlimited
  | Maximum stacksize for task 4: unlimited
  | Maximum stacksize for task 5: unlimited
  | Maximum stacksize for task 6: unlimited
  | Maximum stacksize for task 7: unlimited
  | Maximum stacksize for task 8: unlimited
  | Maximum stacksize for task 9: unlimited
  | Maximum stacksize for task 10: unlimited
  | Maximum stacksize for task 11: unlimited
  | Maximum stacksize for task 12: unlimited
  | Maximum stacksize for task 13: unlimited
  | Maximum stacksize for task 14: unlimited
  | Maximum stacksize for task 15: unlimited
  | Maximum stacksize for task 16: unlimited
  | Maximum stacksize for task 17: unlimited
  | Maximum stacksize for task 18: unlimited
  | Maximum stacksize for task 19: unlimited
  | Maximum stacksize for task 20: unlimited
  | Maximum stacksize for task 21: unlimited
  | Maximum stacksize for task 22: unlimited
  | Maximum stacksize for task 23: unlimited
  | Current stacksize for task 0: unlimited
  | Current stacksize for task 1: unlimited
  | Current stacksize for task 2: unlimited
  | Current stacksize for task 3: unlimited
  | Current stacksize for task 4: unlimited
  | Current stacksize for task 5: unlimited
  | Current stacksize for task 6: unlimited
  | Current stacksize for task 7: unlimited
  | Current stacksize for task 8: unlimited
  | Current stacksize for task 9: unlimited
  | Current stacksize for task 10: unlimited
  | Current stacksize for task 11: unlimited
  | Current stacksize for task 12: unlimited
  | Current stacksize for task 13: unlimited
  | Current stacksize for task 14: unlimited
  | Current stacksize for task 15: unlimited
  | Current stacksize for task 16: unlimited
  | Current stacksize for task 17: unlimited
  | Current stacksize for task 18: unlimited
  | Current stacksize for task 19: unlimited
  | Current stacksize for task 20: unlimited
  | Current stacksize for task 21: unlimited
  | Current stacksize for task 22: unlimited
  | Current stacksize for task 23: unlimited
 
  Consistency checks for the contents of control.in are next.
 
  MPI_IN_PLACE appears to work with this MPI implementation.
  | Keeping use_mpi_in_place .true. (see manual).
  Target number of points in a grid batch is not set. Defaulting to  100
  Method for grid partitioning is not set. Defaulting to parallel hash+maxmin partitioning.
  Batch size limit is not set. Defaulting to    200
  By default, will store active basis functions for each batch.
  If in need of memory, prune_basis_once .false. can be used to disable this option.
  communication_type for Hartree potential was not specified.
  Defaulting to calc_hartree .
  Pulay mixer: Number of initial linear mixing iterations not set.
  Defaulting to    0 iterations.
  Work space size for distributed Hartree potential not set.
  Defaulting to   0.200000E+03 MB.
  Algorithm-dependent basis array size parameters:
  | n_max_pulay                         :       10
  Presetting      1001 iterations before the initial mixing cycle
  is restarted anyway using the sc_init_iter criterion / keyword.
  Presetting a factor      1.000 between actual scf density residual
  and density convergence criterion sc_accuracy_rho below which sc_init_iter
  takes no effect.
  Geometry relaxation not requested: no relaxation will be performed.
  Forces evaluation will include force correction term due to incomplete self-consistency (default).
  Handling of forces: Unphysical translation and rotation will be removed from forces.
  No accuracy limit for integral partition fn. given. Defaulting to  0.1000E-14.
  No threshold value for u(r) in integrations given. Defaulting to  0.1000E-05.
  No accuracy for occupation numbers given. Defaulting to  0.1000E-12.
  No threshold value for occupation numbers given. Defaulting to  0.0000E+00.
  No accuracy for fermi level given. Defaulting to  0.1000E-19.
  Maximum # of iterations to find E_F not set. Defaulting to  200.
  Preferred method for the eigenvalue solver ('KS_method') not specified in 'control.in'.
  Calling BLACS routine to test compilation state
  Since ScaLAPACK support is enabled, defaulting to ELPA (via ELSI).
  Will not use alltoall communication since running on < 1024 CPUs.
  Threshold for basis singularities not set.
  Default threshold for basis singularities:  0.1000E-04
  partition_type (choice of integration weights) for integrals was not specified.
  | Using a version of the partition function of Stratmann and coworkers ('stratmann_sparse').
  | At each grid point, the set of atoms used to build the partition table is smoothly restricted to
  | only those atoms whose free-atom density would be non-zero at that grid point.
  Partitioning for Hartree potential was not defined. Using partition_type for integrals.
  | Adjusted default value of keyword multip_moments_threshold to:       0.10000000E-11
  | This value may affect high angular momentum components of the Hartree potential in periodic systems.
  No q(lm)/r^(l+1) cutoff set for long-range Hartree potential.
  | Using default value of  0.100000E-09 .
  | Verify using the multipole_threshold keyword.
  Defaulting to new monopole extrapolation.
  Density update method: automatic selection selected.
  Charge integration errors on the 3D integration grid will be compensated
  by explicit normalization and distribution of residual charges.
  Use the "compensate_multipole_errors" flag to change this behaviour.
  Set 'collect_eigenvectors' to be '.true.' for use_density_matrix .false.
 
  Consistency checks for the contents of geometry.in are next.
 
  Number of empty states per atom not set in control.in - providing a guess from actual geometry.
  | Total number of empty states used during s.c.f. cycle:       36
  If you use a very high smearing, use empty_states (per atom!) in control.in to increase this value.

  Structure-dependent array size parameters: 
  | Maximum number of distinct radial functions  :       14
  | Maximum number of basis functions            :      180
  | Number of Kohn-Sham states (occupied + empty):       96
------------------------------------------------------------

------------------------------------------------------------
          Preparing all fixed parts of the calculation.
------------------------------------------------------------
  Determining machine precision:
    2.225073858507201E-308
  Setting up grids for atomic and cluster calculations.

  Creating wave function, potential, and density for free atoms.

  Species: Al

  List of occupied orbitals and eigenvalues:
    n    l              occ      energy [Ha]    energy [eV]
    1    0           2.0000       -55.621123     -1513.5278
    2    0           2.0000        -3.957030      -107.6763
    3    0           2.0000        -0.272233        -7.4078
    2    1           6.0000        -2.540949       -69.1427
    3    1           1.0000        -0.083300        -2.2667


  Species: F

  List of occupied orbitals and eigenvalues:
    n    l              occ      energy [Ha]    energy [eV]
    1    0           2.0000       -24.399611      -663.9472
    2    0           2.0000        -1.098702       -29.8972
    2    1           5.0000        -0.408210       -11.1080


  Adding cutoff potential to free-atom effective potential.
  Creating fixed part of basis set: Ionic, confined, hydrogenic.
 
  Al                   ion:

  List of free ionic orbitals and eigenvalues:
    n    l      energy [Ha]    energy [eV]
    1    0       -56.418846     -1535.2349
    2    0        -4.732717      -128.7838
    3    0        -0.872690       -23.7471
    2    1        -3.317230       -90.2664


  List of ionic basis orbitals and eigenvalues:
    n    l      energy [Ha]    energy [eV]    outer radius [A]
    3    2        -0.346815        -9.4373       4.594041
    3    1        -0.631870       -17.1940       4.538221
    3    0        -0.872657       -23.7462       4.538221

 
  F                    hydrogenic:
 
  List of hydrogenic basis orbitals: 
    n    l      effective z      eigenvalue [eV]  inner max. [A]     outer max. [A]     outer radius [A]   
    2    1         1.700000        -9.7616           1.243167           1.243167           4.598524
    3    2         7.400000       -82.7828           0.642437           0.642437           3.305741
    3    0         6.800000       -69.9026           0.057798           1.022307           3.781556
 
  Creating atomic-like basis functions for current effective potential.

  Species Al                  :

  List of atomic basis orbitals and eigenvalues:
    n    l      energy [Ha]    energy [eV]    outer radius [A]
    1    0       -55.621123     -1513.5278       0.850197
    2    0        -3.957030      -107.6763       3.144911
    3    0        -0.272233        -7.4078       4.594041
    2    1        -2.540949       -69.1427       3.731966
    3    1        -0.083300        -2.2667       4.594041


  Species F                   :

  List of atomic basis orbitals and eigenvalues:
    n    l      energy [Ha]    energy [eV]    outer radius [A]
    1    0       -24.399611      -663.9472       1.258458
    2    0        -1.098702       -29.8972       4.325857
    2    1        -0.408210       -11.1080       4.487453

  Assembling full basis from fixed parts.
  | Species Al :   atomic orbital   1 s accepted.
  | Species Al :   atomic orbital   2 s accepted.
  | Species Al :    ionic orbital   3 s accepted.
  | Species Al :   atomic orbital   3 s accepted.
  | Species Al :   atomic orbital   2 p accepted.
  | Species Al :    ionic orbital   3 p accepted.
  | Species Al :   atomic orbital   3 p accepted.
  | Species Al :    ionic orbital   3 d accepted.
  | Species F :   atomic orbital   1 s accepted.
  | Species F :    hydro orbital   3 s accepted.
  | Species F :   atomic orbital   2 s accepted.
  | Species F :   atomic orbital   2 p accepted.
  | Species F :    hydro orbital   2 p accepted.
  | Species F :    hydro orbital   3 d accepted.
 
  Basis size parameters after reduction:
  | Total number of radial functions:       14
  | Total number of basis functions :      180
 
  Per-task memory consumption for arrays in subroutine allocate_ext:
  |           4.807768MB.
  Testing on-site integration grid accuracy.
  |  Species  Function  <phi|h_atom|phi> (log., in eV)  <phi|h_atom|phi> (rad., in eV)
           1        1              -1513.5277717935              -1513.5271881332
           1        2               -107.6762691836               -107.6762662489
           1        3                 -6.9467474784                 -6.9471269649
           1        4                  5.5771951849                  5.4862107220 ***
           1        5                -69.1427313144                -69.1427312731
           1        6                 -1.5197375330                 -1.5230432022
           1        7                  6.8210948310                  6.5529872240 ***
           1        8                  4.3216540965                  4.2851170187 ***
           2        9               -663.9471986398               -663.9470363334
           2       10                 16.8514011578                 16.8512525338
           2       11                -28.4490593856                -28.4490661472
           2       12                -11.1080115307                -11.1080620173
           2       13                  7.1940182175                  7.1685154137
           2       14                 44.8544281765                 44.8543763625
 * Note: Onsite integrals marked "***" above are less accurate than
 * onsite_accuracy_threshold =    0.03000 eV. Usually, this is harmless.
 * When in doubt, tighten the "radial" and/or "radial_multiplier" flags to check.

  Preparing densities etc. for the partition functions (integrals / Hartree potential).

  Preparations completed.
  max(cpu_time)          :      0.184 s.
  Wall clock time (cpu1) :      0.184 s.
------------------------------------------------------------

------------------------------------------------------------
          Begin self-consistency loop: Initialization.

          Date     :  20220517, Time     :  111237.278
------------------------------------------------------------

  Initializing index lists of integration centers etc. from given atomic structure:
  | Number of centers in hartree potential         :        12
  | Number of centers in hartree multipole         :        12
  | Number of centers in electron density summation:        12
  | Number of centers in basis integrals           :        12
  | Number of centers in integrals                 :        12
  | Number of centers in hamiltonian               :        12
  * Using 24 tasks for Scalapack Eigenvalue solver.
  Detailed listing of tasks and assigned k-points:
  (for non-periodic systems, the "k-point" denotes an internal label only)
   Task     0 k-point     1 on node-k98a-025
   Task     1 k-point     1 on node-k98a-025
   Task     2 k-point     1 on node-k98a-025
   Task     3 k-point     1 on node-k98a-025
   Task     4 k-point     1 on node-k98a-025
   Task     5 k-point     1 on node-k98a-025
   Task     6 k-point     1 on node-k98a-025
   Task     7 k-point     1 on node-k98a-025
   Task     8 k-point     1 on node-k98a-025
   Task     9 k-point     1 on node-k98a-025
   Task    10 k-point     1 on node-k98a-025
   Task    11 k-point     1 on node-k98a-025
   Task    12 k-point     1 on node-k98a-025
   Task    13 k-point     1 on node-k98a-025
   Task    14 k-point     1 on node-k98a-025
   Task    15 k-point     1 on node-k98a-025
   Task    16 k-point     1 on node-k98a-025
   Task    17 k-point     1 on node-k98a-025
   Task    18 k-point     1 on node-k98a-025
   Task    19 k-point     1 on node-k98a-025
   Task    20 k-point     1 on node-k98a-025
   Task    21 k-point     1 on node-k98a-025
   Task    22 k-point     1 on node-k98a-025
   Task    23 k-point     1 on node-k98a-025
  Tasks:    24 split into      6 X      4 BLACS grid
  Calculating block size based on n_basis =          180  max_nprow =            6  max_npcol =            4
  ScaLAPACK block size set to:           16
  Allocating        0.012 MB for ovlp
  Allocating        0.012 MB for ham
  Allocating        0.012 MB for eigenvec
  Required Scalapack workspace - INTEGER:            1  REAL:             1
  Partitioning the integration grid into batches with parallel hashing+maxmin method.
  | Number of batches:     1062
  | Maximal batch size:     195
  | Minimal batch size:      24
  | Average batch size:      86.554
  | Standard deviation of batch sizes:      25.850

  Integration load balanced across    24 MPI tasks.
  Work distribution over tasks is as follows:
  Task     0 has       3894 integration points.
  Task     1 has       3770 integration points.
  Task     2 has       3884 integration points.
  Task     3 has       3845 integration points.
  Task     4 has       3761 integration points.
  Task     5 has       3880 integration points.
  Task     6 has       3821 integration points.
  Task     7 has       3891 integration points.
  Task     8 has       3889 integration points.
  Task     9 has       3774 integration points.
  Task    10 has       3774 integration points.
  Task    11 has       3771 integration points.
  Task    12 has       3884 integration points.
  Task    13 has       3884 integration points.
  Task    14 has       3778 integration points.
  Task    15 has       3879 integration points.
  Task    16 has       3766 integration points.
  Task    17 has       3769 integration points.
  Task    18 has       3894 integration points.
  Task    19 has       3771 integration points.
  Task    20 has       3782 integration points.
  Task    21 has       3898 integration points.
  Task    22 has       3773 integration points.
  Task    23 has       3888 integration points.
  Initializing partition tables, free-atom densities, potentials, etc. across the integration grid (initialize_grid_storage).
  | initialize_grid_storage: Actual outermost partition radius vs. multipole_radius_free
  | (-- VB: in principle, multipole_radius_free should be larger, hence this output)
  | Species        1: Confinement radius =              4.999999999999999 AA, multipole_radius_free =              5.004487022111096 AA.
  | Species        1: outer_partition_radius set to              5.004487022111096 AA .
  | Species        2: Confinement radius =              4.999999999999999 AA, multipole_radius_free =              5.009370088163274 AA.
  | Species        2: outer_partition_radius set to              5.009370088163274 AA .
  | The sparse table of interatomic distances needs          1.64 kbyte instead of         1.15 kbyte of memory.
  | Using the partition_type stratmann_smoother will reduce your memory usage.
  | Net number of integration points:    91920
  | of which are non-zero points    :    85848
  Renormalizing the initial density to the exact electron count on the 3D integration grid.
  | Initial density: Formal number of electrons (from input files) :     120.0000000000
  | Integrated number of electrons on 3D grid     :     119.9998391268
  | Charge integration error                      :      -0.0001608732
  | Normalization factor for density and gradient :       1.0000013406
  Renormalizing the free-atom superposition density to the exact electron count on the 3D integration grid.
  | Formal number of electrons (from input files) :     120.0000000000
  | Integrated number of electrons on 3D grid     :     119.9998391268
  | Charge integration error                      :      -0.0001608732
  | Normalization factor for density and gradient :       1.0000013406
  Obtaining max. number of non-zero basis functions in each batch (get_n_compute_maxes).
  | Maximal number of non-zero basis functions:      164 in task     0
  | Maximal number of non-zero basis functions:      166 in task     1
  | Maximal number of non-zero basis functions:      161 in task     2
  | Maximal number of non-zero basis functions:      166 in task     3
  | Maximal number of non-zero basis functions:      163 in task     4
  | Maximal number of non-zero basis functions:      158 in task     5
  | Maximal number of non-zero basis functions:      157 in task     6
  | Maximal number of non-zero basis functions:      164 in task     7
  | Maximal number of non-zero basis functions:      164 in task     8
  | Maximal number of non-zero basis functions:      159 in task     9
  | Maximal number of non-zero basis functions:      160 in task    10
  | Maximal number of non-zero basis functions:      158 in task    11
  | Maximal number of non-zero basis functions:      160 in task    12
  | Maximal number of non-zero basis functions:      165 in task    13
  | Maximal number of non-zero basis functions:      163 in task    14
  | Maximal number of non-zero basis functions:      159 in task    15
  | Maximal number of non-zero basis functions:      160 in task    16
  | Maximal number of non-zero basis functions:      166 in task    17
  | Maximal number of non-zero basis functions:      163 in task    18
  | Maximal number of non-zero basis functions:      165 in task    19
  | Maximal number of non-zero basis functions:      163 in task    20
  | Maximal number of non-zero basis functions:      160 in task    21
  | Maximal number of non-zero basis functions:      164 in task    22
  | Maximal number of non-zero basis functions:      154 in task    23
  Selecting the method for density update.
  Loop over occupied states selected for charge density update.
  Allocating        0.132 MB for KS_eigenvector
  Integrating Hamiltonian matrix: batch-based integration.
  Time summed over all CPUs for integration: real work        0.683 s, elapsed        0.733 s
  Integrating overlap matrix.
  Time summed over all CPUs for integration: real work        0.261 s, elapsed        0.275 s
  Deallocating overlap matrix.

  Updating Kohn-Sham eigenvalues and eigenvectors using ELSI and the ELPA eigensolver.
  Overlap matrix is not singular
  | Lowest and highest eigenvalues :  0.3227E-02,  0.4864E+01
  Finished singularity check of overlap matrix
  | Time :     0.004 s
  Starting ELPA eigensolver
  Finished Cholesky decomposition
  | Time :     0.002 s
  Finished transformation to standard eigenproblem
  | Time :     0.001 s
  Finished solving standard eigenproblem
  | Time :     0.003 s
  Finished back-transformation of eigenvectors
  | Time :     0.001 s

  Obtaining occupation numbers and chemical potential using ELSI.
  | Chemical potential (Fermi level):    -7.69265738 eV
  Writing Kohn-Sham eigenvalues.

  State    Occupation    Eigenvalue [Ha]    Eigenvalue [eV]
      1       2.00000         -55.488274        -1509.91275
      2       2.00000         -55.486984        -1509.87765
      3       2.00000         -55.483098        -1509.77192
      4       2.00000         -24.380908         -663.43827
      5       2.00000         -24.380908         -663.43826
      6       2.00000         -24.363258         -662.95797
      7       2.00000         -24.360419         -662.88074
      8       2.00000         -24.354948         -662.73186
      9       2.00000         -24.354948         -662.73186
     10       2.00000         -24.338629         -662.28779
     11       2.00000         -24.327604         -661.98778
     12       2.00000         -24.326068         -661.94599
     13       2.00000          -3.955409         -107.63215
     14       2.00000          -3.953536         -107.58120
     15       2.00000          -3.947900         -107.42783
     16       2.00000          -2.548983          -69.36135
     17       2.00000          -2.548338          -69.34381
     18       2.00000          -2.548186          -69.33967
     19       2.00000          -2.545598          -69.26925
     20       2.00000          -2.545421          -69.26442
     21       2.00000          -2.542896          -69.19571
     22       2.00000          -2.540332          -69.12594
     23       2.00000          -2.539857          -69.11303
     24       2.00000          -2.538999          -69.08967
     25       2.00000          -1.216571          -33.10458
     26       2.00000          -1.202588          -32.72408
     27       2.00000          -1.181026          -32.13736
     28       2.00000          -1.176384          -32.01103
     29       2.00000          -1.175232          -31.97969
     30       2.00000          -1.167243          -31.76231
     31       2.00000          -1.146330          -31.19322
     32       2.00000          -1.130403          -30.75983
     33       2.00000          -1.127824          -30.68964
     34       2.00000          -0.570736          -15.53052
     35       2.00000          -0.565020          -15.37498
     36       2.00000          -0.545314          -14.83874
     37       2.00000          -0.536061          -14.58697
     38       2.00000          -0.525136          -14.28969
     39       2.00000          -0.520651          -14.16763
     40       2.00000          -0.510169          -13.88240
     41       2.00000          -0.507587          -13.81215
     42       2.00000          -0.501714          -13.65232
     43       2.00000          -0.497954          -13.55003
     44       2.00000          -0.492112          -13.39104
     45       2.00000          -0.484043          -13.17148
     46       2.00000          -0.481216          -13.09456
     47       2.00000          -0.478517          -13.02112
     48       2.00000          -0.476648          -12.97024
     49       2.00000          -0.472229          -12.85001
     50       2.00000          -0.471113          -12.81963
     51       2.00000          -0.470376          -12.79959
     52       2.00000          -0.468329          -12.74387
     53       2.00000          -0.464765          -12.64691
     54       2.00000          -0.459464          -12.50266
     55       2.00000          -0.448022          -12.19130
     56       2.00000          -0.447889          -12.18768
     57       2.00000          -0.438775          -11.93969
     58       2.00000          -0.436790          -11.88565
     59       2.00000          -0.433840          -11.80538
     60       2.00000          -0.432609          -11.77188
     61       0.00000          -0.140538           -3.82423
     62       0.00000          -0.110756           -3.01382
     63       0.00000          -0.065220           -1.77473
     64       0.00000          -0.028824           -0.78435
     65       0.00000          -0.024071           -0.65501
     66       0.00000          -0.010189           -0.27726
     67       0.00000          -0.001464           -0.03985
     68       0.00000           0.032173            0.87548
     69       0.00000           0.052634            1.43224
     70       0.00000           0.067562            1.83846
     71       0.00000           0.082607            2.24786
     72       0.00000           0.106733            2.90435
     73       0.00000           0.141785            3.85815
     74       0.00000           0.161075            4.38306
     75       0.00000           0.172143            4.68426
     76       0.00000           0.172333            4.68943
     77       0.00000           0.176527            4.80355
     78       0.00000           0.179650            4.88853
     79       0.00000           0.191123            5.20072
     80       0.00000           0.203111            5.52692
     81       0.00000           0.204207            5.55676
     82       0.00000           0.219217            5.96519
     83       0.00000           0.227311            6.18546
     84       0.00000           0.229472            6.24424
     85       0.00000           0.254532            6.92616
     86       0.00000           0.255618            6.95572
     87       0.00000           0.269505            7.33360
     88       0.00000           0.272463            7.41408
     89       0.00000           0.278941            7.59038
     90       0.00000           0.297399            8.09263
     91       0.00000           0.303055            8.24656
     92       0.00000           0.312706            8.50916
     93       0.00000           0.344335            9.36984
     94       0.00000           0.346979            9.44179
     95       0.00000           0.370604           10.08464
     96       0.00000           0.371912           10.12023

  Highest occupied state (VBM) at    -11.77188146 eV
  | Occupation number:      2.00000000

  Lowest unoccupied state (CBM) at    -3.82422890 eV
  | Occupation number:      0.00000000

  Overall HOMO-LUMO gap:      7.94765256 eV.
  Calculating total energy contributions from superposition of free atom densities.

  Total energy components:
  | Sum of eigenvalues            :        -888.12436031 Ha      -24167.09345235 eV
  | XC energy correction          :        -144.37107305 Ha       -3928.53677935 eV
  | XC potential correction       :         187.98106768 Ha        5115.22511140 eV
  | Free-atom electrostatic energy:        -780.81512758 Ha      -21247.06066001 eV
  | Hartree energy correction     :           0.00000000 Ha           0.00000000 eV
  | Entropy correction            :           0.00000000 Ha           0.00000000 eV
  | ---------------------------
  | Total energy                  :       -1625.32949326 Ha      -44227.46578030 eV
  | Total energy, T -> 0          :       -1625.32949326 Ha      -44227.46578030 eV  <-- do not rely on this value for anything but (periodic) metals
  | Electronic free energy        :       -1625.32949326 Ha      -44227.46578030 eV

  Derived energy quantities:
  | Kinetic energy                :        1627.75559292 Ha       44293.48331106 eV
  | Electrostatic energy          :       -3108.71401314 Ha      -84592.41231201 eV
  | Energy correction for multipole
  | error in Hartree potential    :           0.00000000 Ha           0.00000000 eV
  | Sum of eigenvalues per atom                           :       -2013.92445436 eV
  | Total energy (T->0) per atom                          :       -3685.62214836 eV  <-- do not rely on this value for anything but (periodic) metals
  | Electronic free energy per atom                       :       -3685.62214836 eV
  Initialize hartree_potential_storage
  Max. number of atoms included in rho_multipole:           12

  End scf initialization - timings             :  max(cpu_time)    wall_clock(cpu1)
  | Time for scf. initialization                :        0.110 s           0.111 s
  | Boundary condition initialization           :        0.000 s           0.000 s
  | Integration                                 :        0.044 s           0.044 s
  | Solution of K.-S. eqns.                     :        0.012 s           0.012 s
  | Grid partitioning                           :        0.032 s           0.032 s
  | Preloading free-atom quantities on grid     :        0.015 s           0.015 s
  | Free-atom superposition energy              :        0.005 s           0.004 s
  | Total energy evaluation                     :        0.000 s           0.001 s

  Partial memory accounting:
  | Current value for overall tracked memory usage:
  |   Minimum:        0.273 MB (on task 23)
  |   Maximum:        0.292 MB (on task  0)
  |   Average:        0.287 MB
  | Peak value for overall tracked memory usage:
  |   Minimum:        1.269 MB (on task 23 after allocating wave)
  |   Maximum:        1.371 MB (on task  1 after allocating wave)
  |   Average:        1.337 MB
  | Largest tracked array allocation so far:
  |   Minimum:        0.229 MB (H_times_psi on task 23)
  |   Maximum:        0.425 MB (all_coords on task 10)
  |   Average:        0.264 MB
  Note:  These values currently only include a subset of arrays which are explicitly tracked.
  The "true" memory usage will be greater.
------------------------------------------------------------
  Evaluating new KS density.
  Integration grid: deviation in total charge (<rho> - N_e) =   2.842171E-14

  Time for density update prior                :  max(cpu_time)    wall_clock(cpu1)
  | self-consistency iterative process          :        0.027 s           0.027 s

------------------------------------------------------------
          Begin self-consistency iteration #    1

  Date     :  20220517, Time     :  111237.416
------------------------------------------------------------
  Pulay mixing of updated and previous charge densities.
  Renormalizing the density to the exact electron count on the 3D integration grid.
  | Formal number of electrons (from input files) :     120.0000000000
  | Integrated number of electrons on 3D grid     :     120.0000000000
  | Charge integration error                      :      -0.0000000000
  | Normalization factor for density and gradient :       1.0000000000

  Evaluating partitioned Hartree potential by multipole expansion.
  | Original multipole sum: apparent total charge =  -0.466373E-13
  | Sum of charges compensated after spline to logarithmic grids =   0.101542E-03
  | Analytical far-field extrapolation by fixed multipoles:
  | Hartree multipole sum: apparent total charge =  -0.455550E-13
  Summing up the Hartree potential.
  Time summed over all CPUs for potential: real work        0.380 s, elapsed        0.389 s
  | RMS charge density error from multipole expansion :   0.113546E-01

  Integrating Hamiltonian matrix: batch-based integration.
  Time summed over all CPUs for integration: real work        0.634 s, elapsed        0.667 s

  Updating Kohn-Sham eigenvalues and eigenvectors using ELSI and the ELPA eigensolver.
  Starting ELPA eigensolver
  Finished transformation to standard eigenproblem
  | Time :     0.001 s
  Finished solving standard eigenproblem
  | Time :     0.003 s
  Finished back-transformation of eigenvectors
  | Time :     0.000 s

  Obtaining occupation numbers and chemical potential using ELSI.
  | Chemical potential (Fermi level):    -4.72378761 eV
  Writing Kohn-Sham eigenvalues.

  State    Occupation    Eigenvalue [Ha]    Eigenvalue [eV]
      1       2.00000         -55.655935        -1514.47505
      2       2.00000         -55.649627        -1514.30341
      3       2.00000         -55.621981        -1513.55111
      4       2.00000         -24.260062         -660.14987
      5       2.00000         -24.260058         -660.14977
      6       2.00000         -24.187404         -658.17274
      7       2.00000         -24.187400         -658.17263
      8       2.00000         -24.123183         -656.42521
      9       2.00000         -24.121920         -656.39083
     10       2.00000         -24.065897         -654.86636
     11       2.00000         -24.023119         -653.70233
     12       2.00000         -24.022258         -653.67891
     13       2.00000          -4.099596         -111.55567
     14       2.00000          -4.094545         -111.41824
     15       2.00000          -4.060826         -110.50069
     16       2.00000          -2.693189          -73.28540
     17       2.00000          -2.692317          -73.26168
     18       2.00000          -2.691092          -73.22833
     19       2.00000          -2.689008          -73.17164
     20       2.00000          -2.686541          -73.10450
     21       2.00000          -2.685981          -73.08926
     22       2.00000          -2.654370          -72.22909
     23       2.00000          -2.653936          -72.21728
     24       2.00000          -2.652148          -72.16861
     25       2.00000          -1.201640          -32.69830
     26       2.00000          -1.182968          -32.19019
     27       2.00000          -1.118432          -30.43408
     28       2.00000          -1.105427          -30.08019
     29       2.00000          -1.082547          -29.45760
     30       2.00000          -1.074923          -29.25015
     31       2.00000          -1.012031          -27.53876
     32       2.00000          -0.966869          -26.30984
     33       2.00000          -0.964061          -26.23344
     34       2.00000          -0.566683          -15.42024
     35       2.00000          -0.558311          -15.19242
     36       2.00000          -0.533025          -14.50434
     37       2.00000          -0.502668          -13.67828
     38       2.00000          -0.492975          -13.41453
     39       2.00000          -0.482803          -13.13774
     40       2.00000          -0.474176          -12.90299
     41       2.00000          -0.463269          -12.60620
     42       2.00000          -0.445200          -12.11452
     43       2.00000          -0.444035          -12.08282
     44       2.00000          -0.424368          -11.54765
     45       2.00000          -0.417257          -11.35415
     46       2.00000          -0.409221          -11.13548
     47       2.00000          -0.403201          -10.97167
     48       2.00000          -0.389377          -10.59550
     49       2.00000          -0.387058          -10.53240
     50       2.00000          -0.375954          -10.23023
     51       2.00000          -0.372862          -10.14610
     52       2.00000          -0.371830          -10.11801
     53       2.00000          -0.347770           -9.46331
     54       2.00000          -0.322552           -8.77707
     55       2.00000          -0.320515           -8.72166
     56       2.00000          -0.318137           -8.65696
     57       2.00000          -0.286790           -7.80395
     58       2.00000          -0.284050           -7.72940
     59       2.00000          -0.277225           -7.54367
     60       2.00000          -0.274307           -7.46429
     61       0.00000          -0.156477           -4.25796
     62       0.00000          -0.109561           -2.98130
     63       0.00000          -0.062719           -1.70668
     64       0.00000          -0.051073           -1.38978
     65       0.00000          -0.047402           -1.28988
     66       0.00000          -0.022788           -0.62010
     67       0.00000           0.005519            0.15017
     68       0.00000           0.022412            0.60987
     69       0.00000           0.045134            1.22815
     70       0.00000           0.066403            1.80692
     71       0.00000           0.068472            1.86322
     72       0.00000           0.081904            2.22871
     73       0.00000           0.122430            3.33150
     74       0.00000           0.151274            4.11639
     75       0.00000           0.171500            4.66676
     76       0.00000           0.174181            4.73972
     77       0.00000           0.178659            4.86155
     78       0.00000           0.180175            4.90281
     79       0.00000           0.188461            5.12830
     80       0.00000           0.208935            5.68542
     81       0.00000           0.209094            5.68974
     82       0.00000           0.213547            5.81092
     83       0.00000           0.221472            6.02656
     84       0.00000           0.221660            6.03168
     85       0.00000           0.229156            6.23566
     86       0.00000           0.245782            6.68808
     87       0.00000           0.254829            6.93425
     88       0.00000           0.261320            7.11087
     89       0.00000           0.271521            7.38847
     90       0.00000           0.292206            7.95133
     91       0.00000           0.296923            8.07968
     92       0.00000           0.312505            8.50369
     93       0.00000           0.337063            9.17195
     94       0.00000           0.360244            9.80275
     95       0.00000           0.361927            9.84853
     96       0.00000           0.373567           10.16528

  Highest occupied state (VBM) at     -7.46428658 eV
  | Occupation number:      2.00000000

  Lowest unoccupied state (CBM) at    -4.25795989 eV
  | Occupation number:      0.00000000

  Overall HOMO-LUMO gap:      3.20632669 eV.

  Total energy components:
  | Sum of eigenvalues            :        -882.37382674 Ha      -24010.61347221 eV
  | XC energy correction          :        -145.74628873 Ha       -3965.95830220 eV
  | XC potential correction       :         189.78897986 Ha        5164.42090476 eV
  | Free-atom electrostatic energy:        -780.81512758 Ha      -21247.06066001 eV
  | Hartree energy correction     :          -5.96093398 Ha        -162.20526659 eV
  | Entropy correction            :           0.00000000 Ha           0.00000000 eV
  | ---------------------------
  | Total energy                  :       -1625.10719718 Ha      -44221.41679624 eV
  | Total energy, T -> 0          :       -1625.10719718 Ha      -44221.41679624 eV  <-- do not rely on this value for anything but (periodic) metals
  | Electronic free energy        :       -1625.10719718 Ha      -44221.41679624 eV

  Derived energy quantities:
  | Kinetic energy                :        1634.50472054 Ha       44477.13641764 eV
  | Electrostatic energy          :       -3113.86562899 Ha      -84732.59491169 eV
  | Energy correction for multipole
  | error in Hartree potential    :           0.04573310 Ha           1.24446097 eV
  | Sum of eigenvalues per atom                           :       -2000.88445602 eV
  | Total energy (T->0) per atom                          :       -3685.11806635 eV  <-- do not rely on this value for anything but (periodic) metals
  | Electronic free energy per atom                       :       -3685.11806635 eV
  Evaluating new KS density.
  Integration grid: deviation in total charge (<rho> - N_e) =   1.421085E-14

  Self-consistency convergence accuracy:
  | Change of charge density      :  0.6096E+00
  | Change of sum of eigenvalues  :  0.1565E+03 eV
  | Change of total energy        :  0.6049E+01 eV


------------------------------------------------------------
  End self-consistency iteration #     1       :  max(cpu_time)    wall_clock(cpu1)
  | Time for this iteration                     :        0.078 s           0.078 s
  | Charge density update                       :        0.026 s           0.026 s
  | Density mixing                              :        0.000 s           0.001 s
  | Hartree multipole update                    :        0.001 s           0.001 s
  | Hartree multipole summation                 :        0.017 s           0.017 s
  | Integration                                 :        0.028 s           0.028 s
  | Solution of K.-S. eqns.                     :        0.004 s           0.004 s
  | Total energy evaluation                     :        0.000 s           0.000 s

  Partial memory accounting:
  | Current value for overall tracked memory usage:
  |   Minimum:        0.273 MB (on task 23)
  |   Maximum:        0.292 MB (on task  0)
  |   Average:        0.287 MB
  | Peak value for overall tracked memory usage:
  |   Minimum:        1.269 MB (on task 23 after allocating wave)
  |   Maximum:        1.371 MB (on task  1 after allocating wave)
  |   Average:        1.337 MB
  | Largest tracked array allocation so far:
  |   Minimum:        0.687 MB (gradient_basis_wave on task 23)
  |   Maximum:        0.741 MB (gradient_basis_wave on task  1)
  |   Average:        0.722 MB
  Note:  These values currently only include a subset of arrays which are explicitly tracked.
  The "true" memory usage will be greater.
------------------------------------------------------------

------------------------------------------------------------
          Begin self-consistency iteration #    2

  Date     :  20220517, Time     :  111237.498
------------------------------------------------------------
  Pulay mixing of updated and previous charge densities.
  Renormalizing the density to the exact electron count on the 3D integration grid.
  | Formal number of electrons (from input files) :     120.0000000000
  | Integrated number of electrons on 3D grid     :     120.0000000000
  | Charge integration error                      :       0.0000000000
  | Normalization factor for density and gradient :       1.0000000000

  Evaluating partitioned Hartree potential by multipole expansion.
  | Original multipole sum: apparent total charge =   0.128400E-13
  | Sum of charges compensated after spline to logarithmic grids =   0.623645E-04
  | Analytical far-field extrapolation by fixed multipoles:
  | Hartree multipole sum: apparent total charge =   0.118561E-13
  Summing up the Hartree potential.
  Time summed over all CPUs for potential: real work        0.379 s, elapsed        0.388 s
  | RMS charge density error from multipole expansion :   0.133400E-01

  Integrating Hamiltonian matrix: batch-based integration.
  Time summed over all CPUs for integration: real work        0.635 s, elapsed        0.670 s

  Updating Kohn-Sham eigenvalues and eigenvectors using ELSI and the ELPA eigensolver.
  Starting ELPA eigensolver
  Finished transformation to standard eigenproblem
  | Time :     0.001 s
  Finished solving standard eigenproblem
  | Time :     0.003 s
  Finished back-transformation of eigenvectors
  | Time :     0.000 s

  Obtaining occupation numbers and chemical potential using ELSI.
  | Chemical potential (Fermi level):    -7.91611770 eV
  Highest occupied state (VBM) at     -8.75393895 eV
  | Occupation number:      2.00000000

  Lowest unoccupied state (CBM) at    -4.49283220 eV
  | Occupation number:      0.00000000

  Overall HOMO-LUMO gap:      4.26110675 eV.

  Checking to see if s.c.f. parameters should be adjusted.

  Total energy components:
  | Sum of eigenvalues            :        -885.53078738 Ha      -24096.51874190 eV
  | XC energy correction          :        -145.24757912 Ha       -3952.38772317 eV
  | XC potential correction       :         189.13281275 Ha        5146.56568941 eV
  | Free-atom electrostatic energy:        -780.81512758 Ha      -21247.06066001 eV
  | Hartree energy correction     :          -2.58002616 Ha         -70.20608375 eV
  | Entropy correction            :           0.00000000 Ha           0.00000000 eV
  | ---------------------------
  | Total energy                  :       -1625.04070748 Ha      -44219.60751941 eV
  | Total energy, T -> 0          :       -1625.04070748 Ha      -44219.60751941 eV  <-- do not rely on this value for anything but (periodic) metals
  | Electronic free energy        :       -1625.04070748 Ha      -44219.60751941 eV

  Derived energy quantities:
  | Kinetic energy                :        1630.59815655 Ha       44370.83340280 eV
  | Electrostatic energy          :       -3110.39128491 Ha      -84638.05319904 eV
  | Energy correction for multipole
  | error in Hartree potential    :           0.05002486 Ha           1.36124576 eV
  | Sum of eigenvalues per atom                           :       -2008.04322849 eV
  | Total energy (T->0) per atom                          :       -3684.96729328 eV  <-- do not rely on this value for anything but (periodic) metals
  | Electronic free energy per atom                       :       -3684.96729328 eV
  Evaluating new KS density.
  Integration grid: deviation in total charge (<rho> - N_e) =  -2.842171E-14

  Self-consistency convergence accuracy:
  | Change of charge density      :  0.4827E+00
  | Change of sum of eigenvalues  : -0.8591E+02 eV
  | Change of total energy        :  0.1809E+01 eV


------------------------------------------------------------
  End self-consistency iteration #     2       :  max(cpu_time)    wall_clock(cpu1)
  | Time for this iteration                     :        0.081 s           0.080 s
  | Charge density update                       :        0.026 s           0.026 s
  | Density mixing                              :        0.004 s           0.003 s
  | Hartree multipole update                    :        0.001 s           0.002 s
  | Hartree multipole summation                 :        0.016 s           0.016 s
  | Integration                                 :        0.028 s           0.028 s
  | Solution of K.-S. eqns.                     :        0.004 s           0.005 s
  | Total energy evaluation                     :        0.000 s           0.000 s

  Partial memory accounting:
  | Current value for overall tracked memory usage:
  |   Minimum:        0.274 MB (on task 23)
  |   Maximum:        0.293 MB (on task  0)
  |   Average:        0.288 MB
  | Peak value for overall tracked memory usage:
  |   Minimum:        1.269 MB (on task 23 after allocating wave)
  |   Maximum:        1.371 MB (on task  1 after allocating wave)
  |   Average:        1.337 MB
  | Largest tracked array allocation so far:
  |   Minimum:        0.687 MB (gradient_basis_wave on task 23)
  |   Maximum:        0.741 MB (gradient_basis_wave on task  1)
  |   Average:        0.722 MB
  Note:  These values currently only include a subset of arrays which are explicitly tracked.
  The "true" memory usage will be greater.
------------------------------------------------------------

------------------------------------------------------------
          Begin self-consistency iteration #    3

  Date     :  20220517, Time     :  111237.584
------------------------------------------------------------
  Pulay mixing of updated and previous charge densities.
  Renormalizing the density to the exact electron count on the 3D integration grid.
  | Formal number of electrons (from input files) :     120.0000000000
  | Integrated number of electrons on 3D grid     :     120.0000000000
  | Charge integration error                      :       0.0000000000
  | Normalization factor for density and gradient :       1.0000000000

  Evaluating partitioned Hartree potential by multipole expansion.
  | Original multipole sum: apparent total charge =   0.865840E-14
  | Sum of charges compensated after spline to logarithmic grids =   0.793896E-04
  | Analytical far-field extrapolation by fixed multipoles:
  | Hartree multipole sum: apparent total charge =   0.619863E-14
  Summing up the Hartree potential.
  Time summed over all CPUs for potential: real work        0.379 s, elapsed        0.388 s
  | RMS charge density error from multipole expansion :   0.179672E-01

  Integrating Hamiltonian matrix: batch-based integration.
  Time summed over all CPUs for integration: real work        0.635 s, elapsed        0.670 s

  Updating Kohn-Sham eigenvalues and eigenvectors using ELSI and the ELPA eigensolver.
  Starting ELPA eigensolver
  Finished transformation to standard eigenproblem
  | Time :     0.000 s
  Finished solving standard eigenproblem
  | Time :     0.003 s
  Finished back-transformation of eigenvectors
  | Time :     0.000 s

  Obtaining occupation numbers and chemical potential using ELSI.
  | Chemical potential (Fermi level):    -7.91350026 eV
  Highest occupied state (VBM) at     -8.07935504 eV
  | Occupation number:      2.00000000

  Lowest unoccupied state (CBM) at    -4.76527867 eV
  | Occupation number:      0.00000000

  Overall HOMO-LUMO gap:      3.31407636 eV.

  Total energy components:
  | Sum of eigenvalues            :        -886.43135706 Ha      -24121.02448980 eV
  | XC energy correction          :        -145.22050530 Ha       -3951.65100687 eV
  | XC potential correction       :         189.09607211 Ha        5145.56592574 eV
  | Free-atom electrostatic energy:        -780.81512758 Ha      -21247.06066001 eV
  | Hartree energy correction     :          -1.66853808 Ha         -45.40323121 eV
  | Entropy correction            :          -0.00000000 Ha          -0.00000000 eV
  | ---------------------------
  | Total energy                  :       -1625.03945590 Ha      -44219.57346215 eV
  | Total energy, T -> 0          :       -1625.03945590 Ha      -44219.57346215 eV  <-- do not rely on this value for anything but (periodic) metals
  | Electronic free energy        :       -1625.03945590 Ha      -44219.57346215 eV

  Derived energy quantities:
  | Kinetic energy                :        1629.05406106 Ha       44328.81642678 eV
  | Electrostatic energy          :       -3108.87301166 Ha      -84596.73888205 eV
  | Energy correction for multipole
  | error in Hartree potential    :           0.06525837 Ha           1.77577061 eV
  | Sum of eigenvalues per atom                           :       -2010.08537415 eV
  | Total energy (T->0) per atom                          :       -3684.96445518 eV  <-- do not rely on this value for anything but (periodic) metals
  | Electronic free energy per atom                       :       -3684.96445518 eV
  Evaluating new KS density.
  Integration grid: deviation in total charge (<rho> - N_e) =   0.000000E+00

  Self-consistency convergence accuracy:
  | Change of charge density      :  0.1239E+00
  | Change of sum of eigenvalues  : -0.2451E+02 eV
  | Change of total energy        :  0.3406E-01 eV


------------------------------------------------------------
  End self-consistency iteration #     3       :  max(cpu_time)    wall_clock(cpu1)
  | Time for this iteration                     :        0.080 s           0.078 s
  | Charge density update                       :        0.026 s           0.026 s
  | Density mixing                              :        0.004 s           0.002 s
  | Hartree multipole update                    :        0.001 s           0.001 s
  | Hartree multipole summation                 :        0.016 s           0.016 s
  | Integration                                 :        0.028 s           0.029 s
  | Solution of K.-S. eqns.                     :        0.004 s           0.004 s
  | Total energy evaluation                     :        0.000 s           0.000 s

  Partial memory accounting:
  | Current value for overall tracked memory usage:
  |   Minimum:        0.274 MB (on task 23)
  |   Maximum:        0.293 MB (on task  0)
  |   Average:        0.288 MB
  | Peak value for overall tracked memory usage:
  |   Minimum:        1.269 MB (on task 23 after allocating wave)
  |   Maximum:        1.371 MB (on task  1 after allocating wave)
  |   Average:        1.337 MB
  | Largest tracked array allocation so far:
  |   Minimum:        0.687 MB (gradient_basis_wave on task 23)
  |   Maximum:        0.741 MB (gradient_basis_wave on task  1)
  |   Average:        0.722 MB
  Note:  These values currently only include a subset of arrays which are explicitly tracked.
  The "true" memory usage will be greater.
------------------------------------------------------------

------------------------------------------------------------
          Begin self-consistency iteration #    4

  Date     :  20220517, Time     :  111237.668
------------------------------------------------------------
  Pulay mixing of updated and previous charge densities.
  Renormalizing the density to the exact electron count on the 3D integration grid.
  | Formal number of electrons (from input files) :     120.0000000000
  | Integrated number of electrons on 3D grid     :     120.0000000000
  | Charge integration error                      :       0.0000000000
  | Normalization factor for density and gradient :       1.0000000000

  Evaluating partitioned Hartree potential by multipole expansion.
  | Original multipole sum: apparent total charge =   0.690704E-13
  | Sum of charges compensated after spline to logarithmic grids =   0.864345E-04
  | Analytical far-field extrapolation by fixed multipoles:
  | Hartree multipole sum: apparent total charge =   0.704479E-13
  Summing up the Hartree potential.
  Time summed over all CPUs for potential: real work        0.379 s, elapsed        0.389 s
  | RMS charge density error from multipole expansion :   0.204452E-01

  Integrating Hamiltonian matrix: batch-based integration.
  Time summed over all CPUs for integration: real work        0.635 s, elapsed        0.671 s

  Updating Kohn-Sham eigenvalues and eigenvectors using ELSI and the ELPA eigensolver.
  Starting ELPA eigensolver
  Finished transformation to standard eigenproblem
  | Time :     0.000 s
  Finished solving standard eigenproblem
  | Time :     0.003 s
  Finished back-transformation of eigenvectors
  | Time :     0.001 s

  Obtaining occupation numbers and chemical potential using ELSI.
  | Chemical potential (Fermi level):    -7.92826901 eV
  Highest occupied state (VBM) at     -8.22473076 eV
  | Occupation number:      2.00000000

  Lowest unoccupied state (CBM) at    -4.77187016 eV
  | Occupation number:      0.00000000

  Overall HOMO-LUMO gap:      3.45286060 eV.

  Total energy components:
  | Sum of eigenvalues            :        -886.64499670 Ha      -24126.83792021 eV
  | XC energy correction          :        -145.20151116 Ha       -3951.13415028 eV
  | XC potential correction       :         189.07031039 Ha        5144.86491344 eV
  | Free-atom electrostatic energy:        -780.81512758 Ha      -21247.06066001 eV
  | Hartree energy correction     :          -1.44579949 Ha         -39.34220576 eV
  | Entropy correction            :           0.00000000 Ha           0.00000000 eV
  | ---------------------------
  | Total energy                  :       -1625.03712455 Ha      -44219.51002282 eV
  | Total energy, T -> 0          :       -1625.03712455 Ha      -44219.51002282 eV  <-- do not rely on this value for anything but (periodic) metals
  | Electronic free energy        :       -1625.03712455 Ha      -44219.51002282 eV

  Derived energy quantities:
  | Kinetic energy                :        1628.26859038 Ha       44307.44268222 eV
  | Electrostatic energy          :       -3108.10420377 Ha      -84575.81855476 eV
  | Energy correction for multipole
  | error in Hartree potential    :           0.07306685 Ha           1.98825007 eV
  | Sum of eigenvalues per atom                           :       -2010.56982668 eV
  | Total energy (T->0) per atom                          :       -3684.95916857 eV  <-- do not rely on this value for anything but (periodic) metals
  | Electronic free energy per atom                       :       -3684.95916857 eV
  Evaluating new KS density.
  Integration grid: deviation in total charge (<rho> - N_e) =   4.263256E-14

  Self-consistency convergence accuracy:
  | Change of charge density      :  0.9063E-01
  | Change of sum of eigenvalues  : -0.5813E+01 eV
  | Change of total energy        :  0.6344E-01 eV


------------------------------------------------------------
  End self-consistency iteration #     4       :  max(cpu_time)    wall_clock(cpu1)
  | Time for this iteration                     :        0.081 s           0.079 s
  | Charge density update                       :        0.026 s           0.027 s
  | Density mixing                              :        0.004 s           0.002 s
  | Hartree multipole update                    :        0.001 s           0.001 s
  | Hartree multipole summation                 :        0.016 s           0.017 s
  | Integration                                 :        0.028 s           0.028 s
  | Solution of K.-S. eqns.                     :        0.004 s           0.004 s
  | Total energy evaluation                     :        0.000 s           0.000 s

  Partial memory accounting:
  | Current value for overall tracked memory usage:
  |   Minimum:        0.274 MB (on task 23)
  |   Maximum:        0.293 MB (on task  0)
  |   Average:        0.288 MB
  | Peak value for overall tracked memory usage:
  |   Minimum:        1.269 MB (on task 23 after allocating wave)
  |   Maximum:        1.371 MB (on task  1 after allocating wave)
  |   Average:        1.337 MB
  | Largest tracked array allocation so far:
  |   Minimum:        0.687 MB (gradient_basis_wave on task 23)
  |   Maximum:        0.741 MB (gradient_basis_wave on task  1)
  |   Average:        0.722 MB
  Note:  These values currently only include a subset of arrays which are explicitly tracked.
  The "true" memory usage will be greater.
------------------------------------------------------------

------------------------------------------------------------
          Begin self-consistency iteration #    5

  Date     :  20220517, Time     :  111237.753
------------------------------------------------------------
  Pulay mixing of updated and previous charge densities.
  Renormalizing the density to the exact electron count on the 3D integration grid.
  | Formal number of electrons (from input files) :     120.0000000000
  | Integrated number of electrons on 3D grid     :     120.0000000000
  | Charge integration error                      :      -0.0000000000
  | Normalization factor for density and gradient :       1.0000000000

  Evaluating partitioned Hartree potential by multipole expansion.
  | Original multipole sum: apparent total charge =  -0.300092E-14
  | Sum of charges compensated after spline to logarithmic grids =   0.869660E-04
  | Analytical far-field extrapolation by fixed multipoles:
  | Hartree multipole sum: apparent total charge =  -0.610024E-14
  Summing up the Hartree potential.
  Time summed over all CPUs for potential: real work        0.379 s, elapsed        0.388 s
  | RMS charge density error from multipole expansion :   0.202827E-01

  Integrating Hamiltonian matrix: batch-based integration.
  Time summed over all CPUs for integration: real work        0.634 s, elapsed        0.670 s

  Updating Kohn-Sham eigenvalues and eigenvectors using ELSI and the ELPA eigensolver.
  Starting ELPA eigensolver
  Finished transformation to standard eigenproblem
  | Time :     0.000 s
  Finished solving standard eigenproblem
  | Time :     0.003 s
  Finished back-transformation of eigenvectors
  | Time :     0.000 s

  Obtaining occupation numbers and chemical potential using ELSI.
  | Chemical potential (Fermi level):    -7.91435783 eV
  Highest occupied state (VBM) at     -8.28630570 eV
  | Occupation number:      2.00000000

  Lowest unoccupied state (CBM) at    -4.71566816 eV
  | Occupation number:      0.00000000

  Overall HOMO-LUMO gap:      3.57063754 eV.

  Total energy components:
  | Sum of eigenvalues            :        -886.50362541 Ha      -24122.99101181 eV
  | XC energy correction          :        -145.19633315 Ha       -3950.99324936 eV
  | XC potential correction       :         189.06364146 Ha        5144.68344281 eV
  | Free-atom electrostatic energy:        -780.81512758 Ha      -21247.06066001 eV
  | Hartree energy correction     :          -1.58551516 Ha         -43.14406275 eV
  | Entropy correction            :           0.00000000 Ha           0.00000000 eV
[...]
   Total forces(   7)            : -0.131758E+01 -0.573824E+00 -0.219533E+01
  atom #    8
   Hellmann-Feynman              :  0.240128E+01  0.198746E+01  0.157490E+00
   Ionic forces                  :  0.000000E+00  0.000000E+00  0.000000E+00
   Multipole                     :  0.476542E+00  0.439620E+00 -0.690254E-01
   Hartree pot. SCF incomplete   :  0.129550E-05 -0.523873E-06  0.361845E-05
   Pulay + GGA                   : -0.557904E+01 -0.469042E+01 -0.205868E+00
   ----------------------------------------------------------------
   Total forces(   8)            : -0.270121E+01 -0.226335E+01 -0.117400E+00
  atom #    9
   Hellmann-Feynman              : -0.501632E+00 -0.262193E+01 -0.298576E+01
   Ionic forces                  :  0.000000E+00  0.000000E+00  0.000000E+00
   Multipole                     :  0.425233E+00 -0.506891E+00 -0.341125E+00
   Hartree pot. SCF incomplete   :  0.137449E-05 -0.815228E-06  0.152373E-05
   Pulay + GGA                   : -0.162868E+01  0.300873E+01  0.133759E+01
   ----------------------------------------------------------------
   Total forces(   9)            : -0.170508E+01 -0.120095E+00 -0.198929E+01
  atom #   10
   Hellmann-Feynman              : -0.103270E+01  0.146059E+01 -0.177974E+01
   Ionic forces                  :  0.000000E+00  0.000000E+00  0.000000E+00
   Multipole                     : -0.223555E+00  0.417063E+00  0.197582E-01
   Hartree pot. SCF incomplete   :  0.252269E-05 -0.133765E-05  0.900902E-05
   Pulay + GGA                   :  0.237349E+01 -0.301634E+01  0.431388E+00
   ----------------------------------------------------------------
   Total forces(  10)            :  0.111724E+01 -0.113868E+01 -0.132858E+01
  atom #   11
   Hellmann-Feynman              :  0.160688E+01  0.675949E+00  0.154784E+01
   Ionic forces                  :  0.000000E+00  0.000000E+00  0.000000E+00
   Multipole                     :  0.390761E+00  0.190272E+00  0.319288E+00
   Hartree pot. SCF incomplete   :  0.195311E-05  0.132968E-05  0.765392E-06
   Pulay + GGA                   : -0.473382E+01 -0.196892E+01 -0.461054E+01
   ----------------------------------------------------------------
   Total forces(  11)            : -0.273618E+01 -0.110270E+01 -0.274341E+01
  atom #   12
   Hellmann-Feynman              : -0.162170E+01 -0.155276E+01  0.358574E+00
   Ionic forces                  :  0.000000E+00  0.000000E+00  0.000000E+00
   Multipole                     : -0.329259E+00 -0.307810E+00  0.562397E-01
   Hartree pot. SCF incomplete   : -0.136530E-05 -0.163661E-05  0.102126E-05
   Pulay + GGA                   :  0.463011E+01  0.463646E+01 -0.147087E+01
   ----------------------------------------------------------------
   Total forces(  12)            :  0.267915E+01  0.277588E+01 -0.105606E+01


  Self-consistency convergence accuracy:
  | Change of charge density      :  0.4913E-06
  | Change of sum of eigenvalues  : -0.6191E-04 eV
  | Change of total energy        : -0.5865E-08 eV
  | Change of forces              :  0.2778E-05 eV/A

  Writing Kohn-Sham eigenvalues.

  State    Occupation    Eigenvalue [Ha]    Eigenvalue [eV]
      1       2.00000         -55.644648        -1514.16791
      2       2.00000         -55.633924        -1513.87611
      3       2.00000         -55.589980        -1512.68033
      4       2.00000         -24.337521         -662.25764
      5       2.00000         -24.337515         -662.25748
      6       2.00000         -24.269658         -660.41099
      7       2.00000         -24.269654         -660.41088
      8       2.00000         -24.260562         -660.16349
      9       2.00000         -24.259607         -660.13749
     10       2.00000         -24.207514         -658.71997
     11       2.00000         -24.166521         -657.60449
     12       2.00000         -24.164252         -657.54275
     13       2.00000          -4.104859         -111.69890
     14       2.00000          -4.093537         -111.39081
     15       2.00000          -4.042087         -109.99079
     16       2.00000          -2.698379          -73.42663
     17       2.00000          -2.697251          -73.39593
     18       2.00000          -2.692958          -73.27910
     19       2.00000          -2.686862          -73.11325
     20       2.00000          -2.684700          -73.05441
     21       2.00000          -2.683291          -73.01605
     22       2.00000          -2.635284          -71.70974
     23       2.00000          -2.634262          -71.68191
     24       2.00000          -2.631513          -71.60710
     25       2.00000          -1.229721          -33.46242
     26       2.00000          -1.212223          -32.98627
     27       2.00000          -1.137660          -30.95730
     28       2.00000          -1.130428          -30.76052
     29       2.00000          -1.125683          -30.63140
     30       2.00000          -1.124184          -30.59060
     31       2.00000          -1.052712          -28.64574
     32       2.00000          -1.000027          -27.21213
     33       2.00000          -0.997717          -27.14926
     34       2.00000          -0.593524          -16.15060
     35       2.00000          -0.584581          -15.90726
     36       2.00000          -0.561094          -15.26814
     37       2.00000          -0.528367          -14.37759
     38       2.00000          -0.513276          -13.96694
     39       2.00000          -0.508021          -13.82395
     40       2.00000          -0.503275          -13.69482
     41       2.00000          -0.494315          -13.45099
     42       2.00000          -0.476505          -12.96636
     43       2.00000          -0.466248          -12.68724
     44       2.00000          -0.466090          -12.68295
     45       2.00000          -0.440420          -11.98445
     46       2.00000          -0.434254          -11.81666
     47       2.00000          -0.433344          -11.79188
     48       2.00000          -0.430829          -11.72345
     49       2.00000          -0.424397          -11.54843
     50       2.00000          -0.421537          -11.47060
     51       2.00000          -0.420296          -11.43683
     52       2.00000          -0.409192          -11.13467
     53       2.00000          -0.372719          -10.14219
     54       2.00000          -0.359510           -9.78275
     55       2.00000          -0.357697           -9.73343
     56       2.00000          -0.349672           -9.51506
     57       2.00000          -0.314254           -8.55130
     58       2.00000          -0.311938           -8.48827
     59       2.00000          -0.307072           -8.35586
     60       2.00000          -0.304517           -8.28632
     61       0.00000          -0.172852           -4.70355
     62       0.00000          -0.121384           -3.30302
     63       0.00000          -0.069278           -1.88516
     64       0.00000          -0.065036           -1.76971
     65       0.00000          -0.057365           -1.56097
     66       0.00000          -0.032191           -0.87597
     67       0.00000           0.010117            0.27530
     68       0.00000           0.016445            0.44748
     69       0.00000           0.041511            1.12958
     70       0.00000           0.063476            1.72728
     71       0.00000           0.066691            1.81476
     72       0.00000           0.076131            2.07163
     73       0.00000           0.110842            3.01616
     74       0.00000           0.141998            3.86398
     75       0.00000           0.156605            4.26144
     76       0.00000           0.164724            4.48238
     77       0.00000           0.167457            4.55673
     78       0.00000           0.168617            4.58831
     79       0.00000           0.186622            5.07824
     80       0.00000           0.198652            5.40560
     81       0.00000           0.205437            5.59024
     82       0.00000           0.214688            5.84196
     83       0.00000           0.215982            5.87717
     84       0.00000           0.216164            5.88212
     85       0.00000           0.225672            6.14083
     86       0.00000           0.240158            6.53503
     87       0.00000           0.247424            6.73275
     88       0.00000           0.257797            7.01502
     89       0.00000           0.268547            7.30753
     90       0.00000           0.289006            7.86424
     91       0.00000           0.293853            7.99614
     92       0.00000           0.308035            8.38207
     93       0.00000           0.332702            9.05328
     94       0.00000           0.351710            9.57053
     95       0.00000           0.356325            9.69610
     96       0.00000           0.365737            9.95221

  Highest occupied state (VBM) at     -8.28631882 eV
  | Occupation number:      2.00000000

  Lowest unoccupied state (CBM) at    -4.70354897 eV
  | Occupation number:      0.00000000

  Overall HOMO-LUMO gap:      3.58276985 eV.
  | Chemical Potential                          :    -7.90857437 eV

  Self-consistency cycle converged.


------------------------------------------------------------
  End self-consistency iteration #    14       :  max(cpu_time)    wall_clock(cpu1)
  | Time for this iteration                     :        0.260 s           0.259 s
  | Charge density & force component update     :        0.139 s           0.138 s
  | Density mixing                              :        0.004 s           0.002 s
  | Hartree multipole update                    :        0.001 s           0.002 s
  | Hartree multipole summation                 :        0.050 s           0.050 s
  | Hartree pot. SCF incomplete forces          :        0.033 s           0.033 s
  | Integration                                 :        0.028 s           0.028 s
  | Solution of K.-S. eqns.                     :        0.004 s           0.004 s
  | Total energy evaluation                     :        0.000 s           0.000 s

  Partial memory accounting:
  | Current value for overall tracked memory usage:
  |   Minimum:        0.274 MB (on task 23)
  |   Maximum:        0.293 MB (on task  0)
  |   Average:        0.289 MB
  | Peak value for overall tracked memory usage:
  |   Minimum:        2.833 MB (on task 23 after allocating hessian_basis_wave)
  |   Maximum:        3.030 MB (on task  1 after allocating hessian_basis_wave)
  |   Average:        2.963 MB
  | Largest tracked array allocation so far:
  |   Minimum:        1.375 MB (hessian_basis_wave on task 23)
  |   Maximum:        1.482 MB (hessian_basis_wave on task  1)
  |   Average:        1.444 MB
  Note:  These values currently only include a subset of arrays which are explicitly tracked.
  The "true" memory usage will be greater.
------------------------------------------------------------
  Removing unitary transformations (pure translations, rotations) from forces on atoms.
  Atomic forces before filtering:
  | Net force on center of mass :  -0.771147E-03  0.295239E-02 -0.146442E-01 eV/A
  | Net torque on center of mass:  -0.139647E-01  0.172707E-01  0.918427E-02 eV
  Atomic forces after filtering:
  | Net force on center of mass :  -0.142725E-14  0.000000E+00 -0.178406E-15 eV/A
  | Net torque on center of mass:  -0.302107E-14  0.245462E-14  0.755268E-15 eV

  Energy and forces in a compact form:
  | Total energy uncorrected      :         -0.442195053346740E+05 eV
  | Total energy corrected        :         -0.442195053346740E+05 eV  <-- do not rely on this value for anything but (periodic) metals
  | Electronic free energy        :         -0.442195053346740E+05 eV
  Total atomic forces (unitary forces cleaned) [eV/Ang]:
  |    1          0.186606072824643E+00         -0.162753704307704E+01          0.394225144705878E+01
  |    2          0.550428236924602E+01          0.245340404791019E+01          0.499637537344088E+01
  |    3         -0.116350377270170E+00          0.905288190073304E-01         -0.414301945987698E+00
  |    4          0.516371950424106E+00          0.431620336312998E+00          0.214286716256551E-01
  |    5         -0.126777212826534E+01          0.164207521264698E+01         -0.671122334625095E-01
  |    6         -0.158897769140296E+00         -0.564701823305354E+00          0.943558589617488E+00
  |    7         -0.131718800874617E+01         -0.573800500774607E+00         -0.219414104030233E+01
  |    8         -0.270082016495354E+01         -0.226381495071613E+01         -0.115551413444941E+00
  |    9         -0.170480030892354E+01         -0.120181221579447E+00         -0.198806345159305E+01
  |   10          0.111708556717617E+01         -0.113913575698539E+01         -0.132730375924530E+01
  |   11         -0.273686412383242E+01         -0.110378463367984E+01         -0.274183484926340E+01
  |   12          0.267834692146053E+01          0.277532751424030E+01         -0.105530538844356E+01

  ------------------------------------ 
  Start decomposition of the XC Energy 
  ------------------------------------ 
  X and C from original XC functional choice 
  Hartree-Fock Energy :          0.000000000 Ha              0.000000000 eV
  X Energy            :       -140.254373078 Ha          -3816.515673619 eV
  C Energy            :         -4.945302793 Ha           -134.568535781 eV
  Total XC Energy     :       -145.199675871 Ha          -3951.084209401 eV
  ------------------------------------ 
  LDA X and C from self-consistent density 
  X Energy LDA        :       -132.830004545 Ha          -3614.488326818 eV
  C Energy LDA        :         -8.826608574 Ha           -240.184239726 eV
  ------------------------------------ 
  End decomposition of the XC Energy 
  ------------------------------------ 

------------------------------------------------------------

------------------------------------------------------------------------------
  Final output of selected total energy values:

  The following output summarizes some interesting total energy values
  at the end of a run (AFTER all relaxation, molecular dynamics, etc.).

  | Total energy of the DFT / Hartree-Fock s.c.f. calculation      :         -44219.505334674 eV
  | Final zero-broadening corrected energy (caution - metals only) :         -44219.505334674 eV
  | For reference only, the value of 1 Hartree used in FHI-aims is :             27.211384500 eV

  Before relying on these values, please be sure to understand exactly which
  total energy value is referred to by a given number. Different objects may
  all carry the same name 'total energy'. Definitions:

  Total energy of the DFT / Hartree-Fock s.c.f. calculation:
  | Note that this energy does not include ANY quantities calculated after the
  | s.c.f. cycle, in particular not ANY RPA, MP2, etc. many-body perturbation terms.

  Final zero-broadening corrected energy:
  | For metallic systems only, a broadening of the occupation numbers at the Fermi
  | level can be extrapolated back to zero broadening by an electron-gas inspired
  | formula. For all systems that are not real metals, this value can be
  | meaningless and should be avoided.

------------------------------------------------------------------------------
  Methods described in the following list of references were used in this FHI-aims run.
  If you publish the results, please make sure to cite these reference if they apply.
  FHI-aims is an academic code, and for our developers (often, Ph.D. students
  and postdocs), scientific credit in the community is essential.
  Thank you for helping us!

  For any use of FHI-aims, please cite:

    Volker Blum, Ralf Gehrke, Felix Hanke, Paula Havu, Ville Havu,
    Xinguo Ren, Karsten Reuter, and Matthias Scheffler
    'Ab initio molecular simulations with numeric atom-centered orbitals'
    Computer Physics Communications 180, 2175-2196 (2009)
    http://dx.doi.org/10.1016/j.cpc.2009.06.022


  The ELSI infrastructure was used in your run to solve the Kohn-Sham electronic structure.
  Please check out http://elsi-interchange.org to learn more.
  If scalability is important for your project, please acknowledge ELSI by citing:

    V. W-z. Yu, F. Corsetti, A. Garcia, W. P. Huhn, M. Jacquelin, W. Jia,
    B. Lange, L. Lin, J. Lu, W. Mi, A. Seifitokaldani, A. Vazquez-Mayagoitia,
    C. Yang, H. Yang, and V. Blum
    'ELSI: A unified software interface for Kohn-Sham electronic structure solvers'
    Computer Physics Communications 222, 267-285 (2018).
    http://dx.doi.org/10.1016/j.cpc.2017.09.007


  For the real-space grid partitioning and parallelization used in this calculation, please cite:

    Ville Havu, Volker Blum, Paula Havu, and Matthias Scheffler,
    'Efficient O(N) integration for all-electron electronic structure calculation'
    'using numerically tabulated basis functions'
    Journal of Computational Physics 228, 8367-8379 (2009).
    http://dx.doi.org/10.1016/j.jcp.2009.08.008

  Of course, there are many other important community references, e.g., those cited in the
  above references. Our list is limited to references that describe implementations in the
  FHI-aims code. The reason is purely practical (length of this list) - please credit others as well.

------------------------------------------------------------
          Leaving FHI-aims.
          Date     :  20220517, Time     :  111238.976

          Computational steps:
          | Number of self-consistency cycles          :           14
          | Number of SCF (re)initializations          :            1

          Detailed time accounting                     :  max(cpu_time)    wall_clock(cpu1)
          | Total time                                  :        1.857 s           1.927 s
          | Preparation time                            :        0.184 s           0.184 s
          | Boundary condition initalization            :        0.000 s           0.000 s
          | Grid partitioning                           :        0.032 s           0.032 s
          | Preloading free-atom quantities on grid     :        0.015 s           0.015 s
          | Free-atom superposition energy              :        0.005 s           0.004 s
          | Total time for integrations                 :        0.440 s           0.439 s
          | Total time for solution of K.-S. equations  :        0.068 s           0.069 s
          | Total time for density & force components   :        0.618 s           0.617 s
          | Total time for mixing                       :        0.060 s           0.035 s
          | Total time for Hartree multipole update     :        0.018 s           0.020 s
          | Total time for Hartree multipole sum        :        0.299 s           0.297 s
          | Total time for total energy evaluation      :        0.002 s           0.003 s
          | Total time NSC force correction             :        0.065 s           0.066 s
          | Total time for scaled ZORA corrections      :        0.000 s           0.000 s

          Partial memory accounting:
          | Residual value for overall tracked memory usage across tasks:     0.000000 MB (should be 0.000000 MB)
          | Peak values for overall tracked memory usage:
          |   Minimum:        2.833 MB (on task 23 after allocating hessian_basis_wave)
          |   Maximum:        3.030 MB (on task  1 after allocating hessian_basis_wave)
          |   Average:        2.963 MB
          | Largest tracked array allocation:
          |   Minimum:        1.375 MB (hessian_basis_wave on task 23)
          |   Maximum:        1.482 MB (hessian_basis_wave on task  1)
          |   Average:        1.444 MB
          Note:  These values currently only include a subset of arrays which are explicitly tracked.
          The "true" memory usage will be greater.

          Have a nice day.
------------------------------------------------------------
