------------------------------------------------------------
          Invoking FHI-aims ...

          When using FHI-aims, please cite the following reference:

            Volker Blum, Ralf Gehrke, Felix Hanke, Paula Havu,
            Ville Havu, Xinguo Ren, Karsten Reuter, and Matthias Scheffler,
            'Ab Initio Molecular Simulations with Numeric Atom-Centered Orbitals',
            Computer Physics Communications 180, 2175-2196 (2009)

          In addition, many other developments in FHI-aims are likely important for
          your particular application. A partial list of references is given at the end of
          this file. Thank you for giving credit to the authors of these developments.

          For any questions about FHI-aims, please visit our slack channel at

            https://fhi-aims.slack.com

          and our main development and support site at

            https://aims-git.rz-berlin.mpg.de .

          The latter site, in particular, has a wiki to collect information, as well
          as an issue tracker to log discussions, suggest improvements, and report issues
          or bugs. https://aims-git.rz-berlin.mpg.de is also the main development site
          of the project and all new and updated code versions can be obtained there.
          Please send an email to aims-coordinators@fhi-berlin.mpg.de and we will add
          you to these sites. They are for you and everyone is welcome there.

------------------------------------------------------------



  Date     :  20220517, Time     :  112612.690
  Time zero on CPU 1             :   0.401500000000000E-01  s.
  Internal wall clock time zero  :           422018772.690  s.

  FHI-aims created a unique identifier for this run for later identification
  aims_uuid : 2A0ACBCA-4E6A-4087-A39F-96824592C27C

  Build configuration of the current instance of FHI-aims
  -------------------------------------------------------
  FHI-aims version      : 210914
  Commit number         : GITDIR-NOTFOUND
  CMake host system     : Linux-3.10.0-693.17.1.el7.x86_64
  CMake version         : 3.21.1
  Fortran compiler      : /shared/ucl/apps/intel/2018.Update3/impi/2018.3.222/intel64/bin/mpiifort (Intel) version 18.0.3.20180410
  Fortran compiler flags: -O3 -ip -fp-model precise
  C compiler            : /shared/ucl/apps/intel/2018.Update3/compilers_and_libraries_2018.3.222/linux/bin/intel64/icc (Intel) version 18.0.3.20180410
  C compiler flags      : -O3 -ip -fp-model precise -std=gnu99
  ELPA2 kernel          : AVX2
  Using MPI
  Using ScaLAPACK
  Using LibXC
  Using i-PI
  Using RLSY
  Linking against: /shared/ucl/apps/intel/2019.Update5/compilers_and_libraries_2019.5.281/linux/mkl/lib/intel64/libmkl_intel_lp64.so
                   /shared/ucl/apps/intel/2019.Update5/compilers_and_libraries_2019.5.281/linux/mkl/lib/intel64/libmkl_sequential.so
                   /shared/ucl/apps/intel/2019.Update5/compilers_and_libraries_2019.5.281/linux/mkl/lib/intel64/libmkl_core.so
                   /shared/ucl/apps/intel/2019.Update5/compilers_and_libraries_2019.5.281/linux/mkl/lib/intel64/libmkl_blacs_intelmpi_lp64.so
                   /shared/ucl/apps/intel/2019.Update5/compilers_and_libraries_2019.5.281/linux/mkl/lib/intel64/libmkl_scalapack_lp64.so

  Using       24 parallel tasks.
  Task        0 on host node-k98i-010 reporting.
  Task        1 on host node-k98i-010 reporting.
  Task        2 on host node-k98i-010 reporting.
  Task        3 on host node-k98i-010 reporting.
  Task        4 on host node-k98i-010 reporting.
  Task        5 on host node-k98i-010 reporting.
  Task        6 on host node-k98i-010 reporting.
  Task        7 on host node-k98i-010 reporting.
  Task        8 on host node-k98i-010 reporting.
  Task        9 on host node-k98i-010 reporting.
  Task       10 on host node-k98i-010 reporting.
  Task       11 on host node-k98i-010 reporting.
  Task       12 on host node-k98i-010 reporting.
  Task       13 on host node-k98i-010 reporting.
  Task       14 on host node-k98i-010 reporting.
  Task       15 on host node-k98i-010 reporting.
  Task       16 on host node-k98i-010 reporting.
  Task       17 on host node-k98i-010 reporting.
  Task       18 on host node-k98i-010 reporting.
  Task       19 on host node-k98i-010 reporting.
  Task       20 on host node-k98i-010 reporting.
  Task       21 on host node-k98i-010 reporting.
  Task       22 on host node-k98i-010 reporting.
  Task       23 on host node-k98i-010 reporting.

  Performing system and environment tests:
  | Environment variable OMP_NUM_THREADS correctly set to 1.
  | Checking for ScaLAPACK...
  | Testing pdtran()...
  | All pdtran() tests passed.

  Obtaining array dimensions for all initial allocations:
  
  -----------------------------------------------------------------------
  Parsing control.in (first pass over file, find array dimensions only).
  The contents of control.in will be repeated verbatim below
  unless switched off by setting 'verbatim_writeout .false.' .
  in the first line of control.in .
  -----------------------------------------------------------------------
  
  #########################################################################################  Physical model
  #########################################################################################
  xc                 pbesol
  spin               none
  relativistic       atomic_zora scalar
  charge             0.0
  #  SCF convergence
  occupation_type    gaussian 0.01
  mixer              pulay
  n_max_pulay        10
  charge_mix_param   0.5
  sc_accuracy_rho    1E-5
  sc_accuracy_eev    1E-3
  sc_accuracy_etot   1E-6
  sc_accuracy_forces 1E-4
  sc_iter_limit      1500
  #  Relaxation
  #relax_geometry   bfgs 1.e-3
  
  ################################################################################
  #
  #  FHI-aims code project
  #  VB, Fritz-Haber Institut, 2009
  #
  #  Suggested "light" defaults for Al atom (to be pasted into control.in file)
  #  Be sure to double-check any results obtained with these settings for post-processing,
  #  e.g., with the "tight" defaults and larger basis sets.
  #
  ################################################################################
    species        Al
  #     global species definitions
      nucleus             13
      mass                26.9815386
  #
      l_hartree           4
  #
      cut_pot             3.5          1.5  1.0
      basis_dep_cutoff    1e-4
  #
      radial_base         41 5.0
      radial_multiplier   1
      angular_grids       specified
        division   0.6594  110
        division   0.8170  194
        division   0.9059  302
  #      division   1.0363  434
  #      division   1.1443  590
  #      division   1.2621  770
  #      division   2.8177  974
  #      outer_grid   974
        outer_grid   302
  ################################################################################
  #
  #  Definition of "minimal" basis
  #
  ################################################################################
  #     valence basis states
      valence      3  s   2.
      valence      3  p   1.
  #     ion occupancy
      ion_occ      3  s   1.
      ion_occ      2  p   6.
  ################################################################################
  #
  #  Suggested additional basis functions. For production calculations,
  #  uncomment them one after another (the most important basis functions are
  #  listed first).
  #
  #  Constructed for dimers: 2.0 A, 2.5 A, 3.0 A, 3.75 A, 4.5 A
  #
  ################################################################################
  #  "First tier" - improvements: -199.47 meV to -10.63 meV
       ionic 3 d auto
       ionic 3 p auto
  #     hydro 4 f 4.7
       ionic 3 s auto
  #  "Second tier" - improvements: -5.35 meV to -1.57 meV
  #     hydro 5 g 7
  #     hydro 3 d 6
  #     hydro 2 s 11.6
  #     hydro 2 p 0.9
  #  "Third tier" - improvements: -0.63 meV to -0.20 meV
  #     hydro 5 f 7.6
  #     hydro 4 p 7.2
  #     hydro 4 s 3.7
  #     hydro 4 d 7.6
  #  "Fourth tier" - improvements: -0.17 meV to -0.08 meV
  #     hydro 4 d 13.6
  #     hydro 5 g 11.2
  #     hydro 4 d 0.9
  #     hydro 1 s 0.4
  #     hydro 4 p 0.1
  #     hydro 5 f 9.8
  #  Further basis functions that fell out of the optimization - noise level...
  #     hydro 4 p 5
  
  ################################################################################
  #
  #  FHI-aims code project
  #  VB, Fritz-Haber Institut, 2009
  #
  #  Suggested "light" defaults for F atom (to be pasted into control.in file)
  #  Be sure to double-check any results obtained with these settings for post-processing,
  #  e.g., with the "tight" defaults and larger basis sets.
  #
  ################################################################################
    species        F
  #     global species definitions
      nucleus             9
      mass                18.9984032
  #
      l_hartree           4
  #
      cut_pot             3.5  1.5  1.0
      basis_dep_cutoff    1e-4
  #
      radial_base         37 5.0
      radial_multiplier   1
      angular_grids specified
        division   0.4014  110
        division   0.5291  194
        division   0.6019  302
  #      division   0.6814  434
  #      division   0.7989  590
  #      division   0.8965  770
  #      division   1.3427  974
  #      outer_grid   974
        outer_grid   302
  ################################################################################
  #
  #  Definition of "minimal" basis
  #
  ################################################################################
  #     valence basis states
      valence      2  s   2.
      valence      2  p   5.
  #     ion occupancy
      ion_occ      2  s   1.
      ion_occ      2  p   4.
  ################################################################################
  #
  #  Suggested additional basis functions. For production calculations,
  #  uncomment them one after another (the most important basis functions are
  #  listed first).
  #
  #  Constructed for dimers: 1.2 A, 1.418 A, 1.75 A, 2.25 A, 3.25 A
  #
  ################################################################################
  #  "First tier" - improvements: -149.44 meV to -45.88 meV
       hydro 2 p 1.7
       hydro 3 d 7.4
       hydro 3 s 6.8
  #  "Second tier" - improvements: -12.96 meV to -1.56 meV
  #     hydro 4 f 11.2
  #     ionic 2 p auto
  #     hydro 1 s 0.75
  #     hydro 4 d 8.8
  #     hydro 5 g 16.8
  #  "Third tier" - improvements: -0.58 meV to -0.05 meV
  #     hydro 3 p 6.2
  #     hydro 3 s 3.2
  #     hydro 4 f 9.6
  #     hydro 3 s 19.6
  #     hydro 4 d 8.6
  #     hydro 5 g 14.4
  # Further basis functions: -0.05 meV and below
  #     hydro 3 p 4.2
  
  -----------------------------------------------------------------------
  Completed first pass over input file control.in .
  -----------------------------------------------------------------------
  
  
  -----------------------------------------------------------------------
  Parsing geometry.in (first pass over file, find array dimensions only).
  The contents of geometry.in will be repeated verbatim below
  unless switched off by setting 'verbatim_writeout .false.' .
  in the first line of geometry.in .
  -----------------------------------------------------------------------
  
  atom 0.343284395 -0.562210078 1.780681317 Al
  atom 2.404805363 -1.804459054 -0.535338490 Al
  atom -0.939986182 -1.847415140 -1.022613736 Al
  atom 3.512863311 -0.446097193 -1.133725603 F
  atom -1.865100251 -0.515164889 -1.917197021 F
  atom 2.745165587 -3.623935677 -0.489114392 F
  atom -1.233522573 -3.675032785 -1.068736869 F
  atom 1.924344196 -1.426735332 1.246072600 F
  atom 0.837993164 -1.489496282 -1.533390265 F
  atom 0.100566351 -1.197448041 3.502765481 F
  atom 0.408666579 1.184150766 1.177928472 F
  atom -0.997315269 -1.464257321 0.820440012 F
  
  -----------------------------------------------------------------------
  Completed first pass over input file geometry.in .
  -----------------------------------------------------------------------
  

  Basic array size parameters:
  | Number of species                 :        2
  | Number of atoms                   :       12
  | Max. basis fn. angular momentum   :        2
  | Max. atomic/ionic basis occupied n:        3
  | Max. number of basis fn. types    :        3
  | Max. radial fns per species/type  :        5
  | Max. logarithmic grid size        :     1340
  | Max. radial integration grid size :       41
  | Max. angular integration grid size:      302
  | Max. angular grid division number :        8
  | Radial grid for Hartree potential :     1340
  | Number of spin channels           :        1

------------------------------------------------------------
          Reading file control.in.
------------------------------------------------------------
  XC: Using PBEsol gradient-corrected functionals.
  Spin treatment: No spin polarisation.
  Scalar relativistic treatment of kinetic energy: on-site free-atom approximation to ZORA.
  Charge =   0.000000E+00: Neutral system requested explicitly.
  Occupation type: Gaussian broadening, width =   0.100000E-01 eV.
  Using pulay charge density mixing.
  Pulay mixing - number of memorized iterations:   10
  Charge density mixing - mixing parameter:     0.5000
  Convergence accuracy of self-consistent charge density:  0.1000E-04
  Convergence accuracy of sum of eigenvalues:  0.1000E-02
  Convergence accuracy of total energy:  0.1000E-05
  Convergence accuracy of forces:  0.1000E-03
  Maximum number of s.-c. iterations  :  1500
 
  Reading configuration options for species Al                  .
  | Found nuclear charge :  13.0000
  | Found atomic mass :    26.9815386000000      amu
  | Found l_max for Hartree potential  :   4
  | Found cutoff potl. onset [A], width [A], scale factor :    3.50000    1.50000    1.00000
  | Threshold for basis-dependent cutoff potential is   0.100000E-03
  | Found data for basic radial integration grid :    41 points, outermost radius =    5.000 A
  | Found multiplier for basic radial grid :   1
  | Found angular grid specification: user-specified.
  | Specified grid contains     4 separate shells.
  | Check grid settings after all constraints further below.
  | Found free-atom valence shell :  3 s   2.000
  | Found free-atom valence shell :  3 p   1.000
  | Found free-ion valence shell :  3 s   1.000
  | Found free-ion valence shell :  2 p   6.000
  | Found ionic basis function :  3 d , default cutoff radius.
  | Found ionic basis function :  3 p , default cutoff radius.
  | Found ionic basis function :  3 s , default cutoff radius.
  Species Al                  : Missing cutoff potential type.
  Defaulting to exp(1/x)/(1-x)^2 type cutoff potential.
  Species Al: No 'logarithmic' tag. Using default grid for free atom:
  | Default logarithmic grid data [bohr] : 0.1000E-03 0.1000E+03 0.1012E+01
  | Will include ionic basis functions of  2.0-fold positive Al                   ion.
  Species Al: On-site basis accuracy parameter (for Gram-Schmidt orthonormalisation) not specified.
  Using default value basis_acc =  0.1000000E-03.
  Species Al                  : Using default innermost maximum threshold i_radial=  2 for radial functions.
  Species Al                  : Default cutoff onset for free atom density etc. : 0.35000000E+01 AA.
  Species Al                  : Basic radial grid will be enhanced according to radial_multiplier =   1, to contain    41 grid points.
 
  Reading configuration options for species F                   .
  | Found nuclear charge :   9.0000
  | Found atomic mass :    18.9984032000000      amu
  | Found l_max for Hartree potential  :   4
  | Found cutoff potl. onset [A], width [A], scale factor :    3.50000    1.50000    1.00000
  | Threshold for basis-dependent cutoff potential is   0.100000E-03
  | Found data for basic radial integration grid :    37 points, outermost radius =    5.000 A
  | Found multiplier for basic radial grid :   1
  | Found angular grid specification: user-specified.
  | Specified grid contains     4 separate shells.
  | Check grid settings after all constraints further below.
  | Found free-atom valence shell :  2 s   2.000
  | Found free-atom valence shell :  2 p   5.000
  | Found free-ion valence shell :  2 s   1.000
  | Found free-ion valence shell :  2 p   4.000
  | Found hydrogenic basis function :  2 p   1.700
  | Found hydrogenic basis function :  3 d   7.400
  | Found hydrogenic basis function :  3 s   6.800
  Species F                   : Missing cutoff potential type.
  Defaulting to exp(1/x)/(1-x)^2 type cutoff potential.
  Species F : No 'logarithmic' tag. Using default grid for free atom:
  | Default logarithmic grid data [bohr] : 0.1000E-03 0.1000E+03 0.1012E+01
  Species F : On-site basis accuracy parameter (for Gram-Schmidt orthonormalisation) not specified.
  Using default value basis_acc =  0.1000000E-03.
  Species F                   : Using default innermost maximum threshold i_radial=  2 for radial functions.
  Species F                   : Default cutoff onset for free atom density etc. : 0.35000000E+01 AA.
  Species F                   : Basic radial grid will be enhanced according to radial_multiplier =   1, to contain    37 grid points.
 
  Finished reading input file 'control.in'.
 
------------------------------------------------------------


------------------------------------------------------------
          Reading geometry description geometry.in.
------------------------------------------------------------
  | The smallest distance between any two atoms is         1.84861084 AA.
  | The first atom of this pair is atom number                      1 .
  | The second atom of this pair is atom number                    11 .
  Input structure read successfully.
  The structure contains       12 atoms,  and a total of        120.000 electrons.

  Input geometry:
  | No unit cell requested.
  | Atomic structure:
  |       Atom                x [A]            y [A]            z [A]
  |    1: Species Al            0.34328440       -0.56221008        1.78068132
  |    2: Species Al            2.40480536       -1.80445905       -0.53533849
  |    3: Species Al           -0.93998618       -1.84741514       -1.02261374
  |    4: Species F             3.51286331       -0.44609719       -1.13372560
  |    5: Species F            -1.86510025       -0.51516489       -1.91719702
  |    6: Species F             2.74516559       -3.62393568       -0.48911439
  |    7: Species F            -1.23352257       -3.67503278       -1.06873687
  |    8: Species F             1.92434420       -1.42673533        1.24607260
  |    9: Species F             0.83799316       -1.48949628       -1.53339026
  |   10: Species F             0.10056635       -1.19744804        3.50276548
  |   11: Species F             0.40866658        1.18415077        1.17792847
  |   12: Species F            -0.99731527       -1.46425732        0.82044001

 
  Finished reading input file 'control.in'.
 

------------------------------------------------------------
          Reading geometry description geometry.in.
------------------------------------------------------------
 
  Consistency checks for stacksize environment parameter are next.
 
  | Maximum stacksize for task 0: unlimited
  | Maximum stacksize for task 1: unlimited
  | Maximum stacksize for task 2: unlimited
  | Maximum stacksize for task 3: unlimited
  | Maximum stacksize for task 4: unlimited
  | Maximum stacksize for task 5: unlimited
  | Maximum stacksize for task 6: unlimited
  | Maximum stacksize for task 7: unlimited
  | Maximum stacksize for task 8: unlimited
  | Maximum stacksize for task 9: unlimited
  | Maximum stacksize for task 10: unlimited
  | Maximum stacksize for task 11: unlimited
  | Maximum stacksize for task 12: unlimited
  | Maximum stacksize for task 13: unlimited
  | Maximum stacksize for task 14: unlimited
  | Maximum stacksize for task 15: unlimited
  | Maximum stacksize for task 16: unlimited
  | Maximum stacksize for task 17: unlimited
  | Maximum stacksize for task 18: unlimited
  | Maximum stacksize for task 19: unlimited
  | Maximum stacksize for task 20: unlimited
  | Maximum stacksize for task 21: unlimited
  | Maximum stacksize for task 22: unlimited
  | Maximum stacksize for task 23: unlimited
  | Current stacksize for task 0: unlimited
  | Current stacksize for task 1: unlimited
  | Current stacksize for task 2: unlimited
  | Current stacksize for task 3: unlimited
  | Current stacksize for task 4: unlimited
  | Current stacksize for task 5: unlimited
  | Current stacksize for task 6: unlimited
  | Current stacksize for task 7: unlimited
  | Current stacksize for task 8: unlimited
  | Current stacksize for task 9: unlimited
  | Current stacksize for task 10: unlimited
  | Current stacksize for task 11: unlimited
  | Current stacksize for task 12: unlimited
  | Current stacksize for task 13: unlimited
  | Current stacksize for task 14: unlimited
  | Current stacksize for task 15: unlimited
  | Current stacksize for task 16: unlimited
  | Current stacksize for task 17: unlimited
  | Current stacksize for task 18: unlimited
  | Current stacksize for task 19: unlimited
  | Current stacksize for task 20: unlimited
  | Current stacksize for task 21: unlimited
  | Current stacksize for task 22: unlimited
  | Current stacksize for task 23: unlimited
 
  Consistency checks for the contents of control.in are next.
 
  MPI_IN_PLACE appears to work with this MPI implementation.
  | Keeping use_mpi_in_place .true. (see manual).
  Target number of points in a grid batch is not set. Defaulting to  100
  Method for grid partitioning is not set. Defaulting to parallel hash+maxmin partitioning.
  Batch size limit is not set. Defaulting to    200
  By default, will store active basis functions for each batch.
  If in need of memory, prune_basis_once .false. can be used to disable this option.
  communication_type for Hartree potential was not specified.
  Defaulting to calc_hartree .
  Pulay mixer: Number of initial linear mixing iterations not set.
  Defaulting to    0 iterations.
  Work space size for distributed Hartree potential not set.
  Defaulting to   0.200000E+03 MB.
  Algorithm-dependent basis array size parameters:
  | n_max_pulay                         :       10
  Presetting      1001 iterations before the initial mixing cycle
  is restarted anyway using the sc_init_iter criterion / keyword.
  Presetting a factor      1.000 between actual scf density residual
  and density convergence criterion sc_accuracy_rho below which sc_init_iter
  takes no effect.
  Geometry relaxation not requested: no relaxation will be performed.
  Forces evaluation will include force correction term due to incomplete self-consistency (default).
  Handling of forces: Unphysical translation and rotation will be removed from forces.
  No accuracy limit for integral partition fn. given. Defaulting to  0.1000E-14.
  No threshold value for u(r) in integrations given. Defaulting to  0.1000E-05.
  No accuracy for occupation numbers given. Defaulting to  0.1000E-12.
  No threshold value for occupation numbers given. Defaulting to  0.0000E+00.
  No accuracy for fermi level given. Defaulting to  0.1000E-19.
  Maximum # of iterations to find E_F not set. Defaulting to  200.
  Preferred method for the eigenvalue solver ('KS_method') not specified in 'control.in'.
  Calling BLACS routine to test compilation state
  Since ScaLAPACK support is enabled, defaulting to ELPA (via ELSI).
  Will not use alltoall communication since running on < 1024 CPUs.
  Threshold for basis singularities not set.
  Default threshold for basis singularities:  0.1000E-04
  partition_type (choice of integration weights) for integrals was not specified.
  | Using a version of the partition function of Stratmann and coworkers ('stratmann_sparse').
  | At each grid point, the set of atoms used to build the partition table is smoothly restricted to
  | only those atoms whose free-atom density would be non-zero at that grid point.
  Partitioning for Hartree potential was not defined. Using partition_type for integrals.
  | Adjusted default value of keyword multip_moments_threshold to:       0.10000000E-11
  | This value may affect high angular momentum components of the Hartree potential in periodic systems.
  No q(lm)/r^(l+1) cutoff set for long-range Hartree potential.
  | Using default value of  0.100000E-09 .
  | Verify using the multipole_threshold keyword.
  Defaulting to new monopole extrapolation.
  Density update method: automatic selection selected.
  Charge integration errors on the 3D integration grid will be compensated
  by explicit normalization and distribution of residual charges.
  Use the "compensate_multipole_errors" flag to change this behaviour.
  Set 'collect_eigenvectors' to be '.true.' for use_density_matrix .false.
 
  Consistency checks for the contents of geometry.in are next.
 
  Number of empty states per atom not set in control.in - providing a guess from actual geometry.
  | Total number of empty states used during s.c.f. cycle:       36
  If you use a very high smearing, use empty_states (per atom!) in control.in to increase this value.

  Structure-dependent array size parameters: 
  | Maximum number of distinct radial functions  :       14
  | Maximum number of basis functions            :      180
  | Number of Kohn-Sham states (occupied + empty):       96
------------------------------------------------------------

------------------------------------------------------------
          Preparing all fixed parts of the calculation.
------------------------------------------------------------
  Determining machine precision:
    2.225073858507201E-308
  Setting up grids for atomic and cluster calculations.

  Creating wave function, potential, and density for free atoms.

  Species: Al

  List of occupied orbitals and eigenvalues:
    n    l              occ      energy [Ha]    energy [eV]
    1    0           2.0000       -55.621123     -1513.5278
    2    0           2.0000        -3.957030      -107.6763
    3    0           2.0000        -0.272233        -7.4078
    2    1           6.0000        -2.540949       -69.1427
    3    1           1.0000        -0.083300        -2.2667


  Species: F

  List of occupied orbitals and eigenvalues:
    n    l              occ      energy [Ha]    energy [eV]
    1    0           2.0000       -24.399611      -663.9472
    2    0           2.0000        -1.098702       -29.8972
    2    1           5.0000        -0.408210       -11.1080


  Adding cutoff potential to free-atom effective potential.
  Creating fixed part of basis set: Ionic, confined, hydrogenic.
 
  Al                   ion:

  List of free ionic orbitals and eigenvalues:
    n    l      energy [Ha]    energy [eV]
    1    0       -56.418846     -1535.2349
    2    0        -4.732717      -128.7838
    3    0        -0.872690       -23.7471
    2    1        -3.317230       -90.2664


  List of ionic basis orbitals and eigenvalues:
    n    l      energy [Ha]    energy [eV]    outer radius [A]
    3    2        -0.346815        -9.4373       4.594041
    3    1        -0.631870       -17.1940       4.538221
    3    0        -0.872657       -23.7462       4.538221

 
  F                    hydrogenic:
 
  List of hydrogenic basis orbitals: 
    n    l      effective z      eigenvalue [eV]  inner max. [A]     outer max. [A]     outer radius [A]   
    2    1         1.700000        -9.7616           1.243167           1.243167           4.598524
    3    2         7.400000       -82.7828           0.642437           0.642437           3.305741
    3    0         6.800000       -69.9026           0.057798           1.022307           3.781556
 
  Creating atomic-like basis functions for current effective potential.

  Species Al                  :

  List of atomic basis orbitals and eigenvalues:
    n    l      energy [Ha]    energy [eV]    outer radius [A]
    1    0       -55.621123     -1513.5278       0.850197
    2    0        -3.957030      -107.6763       3.144911
    3    0        -0.272233        -7.4078       4.594041
    2    1        -2.540949       -69.1427       3.731966
    3    1        -0.083300        -2.2667       4.594041


  Species F                   :

  List of atomic basis orbitals and eigenvalues:
    n    l      energy [Ha]    energy [eV]    outer radius [A]
    1    0       -24.399611      -663.9472       1.258458
    2    0        -1.098702       -29.8972       4.325857
    2    1        -0.408210       -11.1080       4.487453

  Assembling full basis from fixed parts.
  | Species Al :   atomic orbital   1 s accepted.
  | Species Al :   atomic orbital   2 s accepted.
  | Species Al :    ionic orbital   3 s accepted.
  | Species Al :   atomic orbital   3 s accepted.
  | Species Al :   atomic orbital   2 p accepted.
  | Species Al :    ionic orbital   3 p accepted.
  | Species Al :   atomic orbital   3 p accepted.
  | Species Al :    ionic orbital   3 d accepted.
  | Species F :   atomic orbital   1 s accepted.
  | Species F :    hydro orbital   3 s accepted.
  | Species F :   atomic orbital   2 s accepted.
  | Species F :   atomic orbital   2 p accepted.
  | Species F :    hydro orbital   2 p accepted.
  | Species F :    hydro orbital   3 d accepted.
 
  Basis size parameters after reduction:
  | Total number of radial functions:       14
  | Total number of basis functions :      180
 
  Per-task memory consumption for arrays in subroutine allocate_ext:
  |           4.807768MB.
  Testing on-site integration grid accuracy.
  |  Species  Function  <phi|h_atom|phi> (log., in eV)  <phi|h_atom|phi> (rad., in eV)
           1        1              -1513.5277717935              -1513.5271881332
           1        2               -107.6762691836               -107.6762662489
           1        3                 -6.9467474784                 -6.9471269649
           1        4                  5.5771951849                  5.4862107220 ***
           1        5                -69.1427313144                -69.1427312731
           1        6                 -1.5197375330                 -1.5230432022
           1        7                  6.8210948310                  6.5529872240 ***
           1        8                  4.3216540965                  4.2851170187 ***
           2        9               -663.9471986398               -663.9470363334
           2       10                 16.8514011578                 16.8512525338
           2       11                -28.4490593856                -28.4490661472
           2       12                -11.1080115307                -11.1080620173
           2       13                  7.1940182175                  7.1685154137
           2       14                 44.8544281765                 44.8543763625
 * Note: Onsite integrals marked "***" above are less accurate than
 * onsite_accuracy_threshold =    0.03000 eV. Usually, this is harmless.
 * When in doubt, tighten the "radial" and/or "radial_multiplier" flags to check.

  Preparing densities etc. for the partition functions (integrals / Hartree potential).

  Preparations completed.
  max(cpu_time)          :      0.184 s.
  Wall clock time (cpu1) :      0.185 s.
------------------------------------------------------------

------------------------------------------------------------
          Begin self-consistency loop: Initialization.

          Date     :  20220517, Time     :  112612.919
------------------------------------------------------------

  Initializing index lists of integration centers etc. from given atomic structure:
  | Number of centers in hartree potential         :        12
  | Number of centers in hartree multipole         :        12
  | Number of centers in electron density summation:        12
  | Number of centers in basis integrals           :        12
  | Number of centers in integrals                 :        12
  | Number of centers in hamiltonian               :        12
  * Using 24 tasks for Scalapack Eigenvalue solver.
  Detailed listing of tasks and assigned k-points:
  (for non-periodic systems, the "k-point" denotes an internal label only)
   Task     0 k-point     1 on node-k98i-010
   Task     1 k-point     1 on node-k98i-010
   Task     2 k-point     1 on node-k98i-010
   Task     3 k-point     1 on node-k98i-010
   Task     4 k-point     1 on node-k98i-010
   Task     5 k-point     1 on node-k98i-010
   Task     6 k-point     1 on node-k98i-010
   Task     7 k-point     1 on node-k98i-010
   Task     8 k-point     1 on node-k98i-010
   Task     9 k-point     1 on node-k98i-010
   Task    10 k-point     1 on node-k98i-010
   Task    11 k-point     1 on node-k98i-010
   Task    12 k-point     1 on node-k98i-010
   Task    13 k-point     1 on node-k98i-010
   Task    14 k-point     1 on node-k98i-010
   Task    15 k-point     1 on node-k98i-010
   Task    16 k-point     1 on node-k98i-010
   Task    17 k-point     1 on node-k98i-010
   Task    18 k-point     1 on node-k98i-010
   Task    19 k-point     1 on node-k98i-010
   Task    20 k-point     1 on node-k98i-010
   Task    21 k-point     1 on node-k98i-010
   Task    22 k-point     1 on node-k98i-010
   Task    23 k-point     1 on node-k98i-010
  Tasks:    24 split into      6 X      4 BLACS grid
  Calculating block size based on n_basis =          180  max_nprow =            6  max_npcol =            4
  ScaLAPACK block size set to:           16
  Allocating        0.012 MB for ovlp
  Allocating        0.012 MB for ham
  Allocating        0.012 MB for eigenvec
  Required Scalapack workspace - INTEGER:            1  REAL:             1
  Partitioning the integration grid into batches with parallel hashing+maxmin method.
  | Number of batches:     1028
  | Maximal batch size:     200
  | Minimal batch size:      17
  | Average batch size:      89.416
  | Standard deviation of batch sizes:      25.093

  Integration load balanced across    24 MPI tasks.
  Work distribution over tasks is as follows:
  Task     0 has       3897 integration points.
  Task     1 has       3889 integration points.
  Task     2 has       3817 integration points.
  Task     3 has       3761 integration points.
  Task     4 has       3802 integration points.
  Task     5 has       3824 integration points.
  Task     6 has       3902 integration points.
  Task     7 has       3831 integration points.
  Task     8 has       3779 integration points.
  Task     9 has       3821 integration points.
  Task    10 has       3902 integration points.
  Task    11 has       3835 integration points.
  Task    12 has       3929 integration points.
  Task    13 has       3830 integration points.
  Task    14 has       3824 integration points.
  Task    15 has       3907 integration points.
  Task    16 has       3749 integration points.
  Task    17 has       3764 integration points.
  Task    18 has       3792 integration points.
  Task    19 has       3760 integration points.
  Task    20 has       3767 integration points.
  Task    21 has       3896 integration points.
  Task    22 has       3746 integration points.
  Task    23 has       3896 integration points.
  Initializing partition tables, free-atom densities, potentials, etc. across the integration grid (initialize_grid_storage).
  | initialize_grid_storage: Actual outermost partition radius vs. multipole_radius_free
  | (-- VB: in principle, multipole_radius_free should be larger, hence this output)
  | Species        1: Confinement radius =              4.999999999999999 AA, multipole_radius_free =              5.004487022111096 AA.
  | Species        1: outer_partition_radius set to              5.004487022111096 AA .
  | Species        2: Confinement radius =              4.999999999999999 AA, multipole_radius_free =              5.009370088163274 AA.
  | Species        2: outer_partition_radius set to              5.009370088163274 AA .
  | The sparse table of interatomic distances needs          1.64 kbyte instead of         1.15 kbyte of memory.
  | Using the partition_type stratmann_smoother will reduce your memory usage.
  | Net number of integration points:    91920
  | of which are non-zero points    :    86021
  Renormalizing the initial density to the exact electron count on the 3D integration grid.
  | Initial density: Formal number of electrons (from input files) :     120.0000000000
  | Integrated number of electrons on 3D grid     :     119.9998117934
  | Charge integration error                      :      -0.0001882066
  | Normalization factor for density and gradient :       1.0000015684
  Renormalizing the free-atom superposition density to the exact electron count on the 3D integration grid.
  | Formal number of electrons (from input files) :     120.0000000000
  | Integrated number of electrons on 3D grid     :     119.9998117934
  | Charge integration error                      :      -0.0001882066
  | Normalization factor for density and gradient :       1.0000015684
  Obtaining max. number of non-zero basis functions in each batch (get_n_compute_maxes).
  | Maximal number of non-zero basis functions:      159 in task     0
  | Maximal number of non-zero basis functions:      170 in task     1
  | Maximal number of non-zero basis functions:      164 in task     2
  | Maximal number of non-zero basis functions:      166 in task     3
  | Maximal number of non-zero basis functions:      165 in task     4
  | Maximal number of non-zero basis functions:      163 in task     5
  | Maximal number of non-zero basis functions:      159 in task     6
  | Maximal number of non-zero basis functions:      171 in task     7
  | Maximal number of non-zero basis functions:      159 in task     8
  | Maximal number of non-zero basis functions:      170 in task     9
  | Maximal number of non-zero basis functions:      164 in task    10
  | Maximal number of non-zero basis functions:      170 in task    11
  | Maximal number of non-zero basis functions:      165 in task    12
  | Maximal number of non-zero basis functions:      164 in task    13
  | Maximal number of non-zero basis functions:      162 in task    14
  | Maximal number of non-zero basis functions:      164 in task    15
  | Maximal number of non-zero basis functions:      161 in task    16
  | Maximal number of non-zero basis functions:      171 in task    17
  | Maximal number of non-zero basis functions:      165 in task    18
  | Maximal number of non-zero basis functions:      170 in task    19
  | Maximal number of non-zero basis functions:      164 in task    20
  | Maximal number of non-zero basis functions:      171 in task    21
  | Maximal number of non-zero basis functions:      164 in task    22
  | Maximal number of non-zero basis functions:      171 in task    23
  Selecting the method for density update.
  Loop over occupied states selected for charge density update.
  Allocating        0.132 MB for KS_eigenvector
  Integrating Hamiltonian matrix: batch-based integration.
  Time summed over all CPUs for integration: real work        0.710 s, elapsed        0.761 s
  Integrating overlap matrix.
  Time summed over all CPUs for integration: real work        0.274 s, elapsed        0.301 s
  Deallocating overlap matrix.

  Updating Kohn-Sham eigenvalues and eigenvectors using ELSI and the ELPA eigensolver.
  Overlap matrix is not singular
  | Lowest and highest eigenvalues :  0.4962E-02,  0.5017E+01
  Finished singularity check of overlap matrix
  | Time :     0.004 s
  Starting ELPA eigensolver
  Finished Cholesky decomposition
  | Time :     0.002 s
  Finished transformation to standard eigenproblem
  | Time :     0.000 s
  Finished solving standard eigenproblem
  | Time :     0.004 s
  Finished back-transformation of eigenvectors
  | Time :     0.000 s

  Obtaining occupation numbers and chemical potential using ELSI.
  | Chemical potential (Fermi level):    -7.95585239 eV
  Writing Kohn-Sham eigenvalues.

  State    Occupation    Eigenvalue [Ha]    Eigenvalue [eV]
      1       2.00000         -55.482432        -1509.75379
      2       2.00000         -55.482349        -1509.75153
      3       2.00000         -55.482349        -1509.75152
      4       2.00000         -24.365621         -663.02229
      5       2.00000         -24.365621         -663.02229
      6       2.00000         -24.365133         -663.00900
      7       2.00000         -24.336927         -662.24149
      8       2.00000         -24.336630         -662.23340
      9       2.00000         -24.336612         -662.23290
     10       2.00000         -24.336612         -662.23290
     11       2.00000         -24.336541         -662.23098
     12       2.00000         -24.336541         -662.23098
     13       2.00000          -3.947071         -107.40526
     14       2.00000          -3.946939         -107.40166
     15       2.00000          -3.946938         -107.40166
     16       2.00000          -2.539414          -69.10097
     17       2.00000          -2.539267          -69.09697
     18       2.00000          -2.539265          -69.09692
     19       2.00000          -2.538667          -69.08064
     20       2.00000          -2.538626          -69.07954
     21       2.00000          -2.538549          -69.07742
     22       2.00000          -2.538523          -69.07673
     23       2.00000          -2.538482          -69.07560
     24       2.00000          -2.538458          -69.07495
     25       2.00000          -1.189653          -32.37211
     26       2.00000          -1.184125          -32.22169
     27       2.00000          -1.183736          -32.21109
     28       2.00000          -1.144485          -31.14302
     29       2.00000          -1.144210          -31.13553
     30       2.00000          -1.143861          -31.12604
     31       2.00000          -1.142689          -31.09416
     32       2.00000          -1.142405          -31.08641
     33       2.00000          -1.142399          -31.08625
     34       2.00000          -0.561727          -15.28537
     35       2.00000          -0.561338          -15.27480
     36       2.00000          -0.537878          -14.63640
     37       2.00000          -0.524118          -14.26197
     38       2.00000          -0.502031          -13.66095
     39       2.00000          -0.495866          -13.49320
     40       2.00000          -0.492623          -13.40494
     41       2.00000          -0.489075          -13.30840
     42       2.00000          -0.487342          -13.26125
     43       2.00000          -0.486473          -13.23759
     44       2.00000          -0.484356          -13.17999
     45       2.00000          -0.483780          -13.16433
     46       2.00000          -0.475512          -12.93934
     47       2.00000          -0.474086          -12.90055
     48       2.00000          -0.471992          -12.84354
     49       2.00000          -0.451009          -12.27257
     50       2.00000          -0.450311          -12.25360
     51       2.00000          -0.450282          -12.25281
     52       2.00000          -0.448111          -12.19371
     53       2.00000          -0.447851          -12.18665
     54       2.00000          -0.446445          -12.14838
     55       2.00000          -0.445972          -12.13552
     56       2.00000          -0.445248          -12.11582
     57       2.00000          -0.444998          -12.10902
     58       2.00000          -0.443953          -12.08059
     59       2.00000          -0.443573          -12.07023
     60       2.00000          -0.443556          -12.06978
     61       0.00000          -0.146502           -3.98651
     62       0.00000          -0.093948           -2.55647
     63       0.00000          -0.093939           -2.55622
     64       0.00000          -0.031831           -0.86618
     65       0.00000          -0.010510           -0.28599
     66       0.00000          -0.009478           -0.25790
     67       0.00000          -0.008226           -0.22385
     68       0.00000           0.031473            0.85641
     69       0.00000           0.047799            1.30069
     70       0.00000           0.048908            1.33085
     71       0.00000           0.070829            1.92737
     72       0.00000           0.072101            1.96197
     73       0.00000           0.136182            3.70570
     74       0.00000           0.158323            4.30819
     75       0.00000           0.164829            4.48523
     76       0.00000           0.180951            4.92394
     77       0.00000           0.181916            4.95019
     78       0.00000           0.189785            5.16430
     79       0.00000           0.190798            5.19188
     80       0.00000           0.197420            5.37208
     81       0.00000           0.202716            5.51618
     82       0.00000           0.211355            5.75126
     83       0.00000           0.211407            5.75267
     84       0.00000           0.224219            6.10132
     85       0.00000           0.235390            6.40529
     86       0.00000           0.250478            6.81586
     87       0.00000           0.268610            7.30925
     88       0.00000           0.287666            7.82779
     89       0.00000           0.292737            7.96578
     90       0.00000           0.293622            7.98985
     91       0.00000           0.298623            8.12595
     92       0.00000           0.313500            8.53076
     93       0.00000           0.336995            9.17009
     94       0.00000           0.337192            9.17545
     95       0.00000           0.351380            9.56155
     96       0.00000           0.362055            9.85203

  Highest occupied state (VBM) at    -12.06977702 eV
  | Occupation number:      2.00000000

  Lowest unoccupied state (CBM) at    -3.98650910 eV
  | Occupation number:      0.00000000

  Overall HOMO-LUMO gap:      8.08326791 eV.
  Calculating total energy contributions from superposition of free atom densities.

  Total energy components:
  | Sum of eigenvalues            :        -887.12126915 Ha      -24139.79795293 eV
  | XC energy correction          :        -144.24367707 Ha       -3925.07015834 eV
  | XC potential correction       :         187.80869455 Ha        5110.53459974 eV
  | Free-atom electrostatic energy:        -781.80794163 Ha      -21274.07650472 eV
  | Hartree energy correction     :           0.00000000 Ha           0.00000000 eV
  | Entropy correction            :           0.00000000 Ha           0.00000000 eV
  | ---------------------------
  | Total energy                  :       -1625.36419329 Ha      -44228.41001626 eV
  | Total energy, T -> 0          :       -1625.36419329 Ha      -44228.41001626 eV  <-- do not rely on this value for anything but (periodic) metals
  | Electronic free energy        :       -1625.36419329 Ha      -44228.41001626 eV

  Derived energy quantities:
  | Kinetic energy                :        1627.37873956 Ha       44283.22860935 eV
  | Electrostatic energy          :       -3108.49925579 Ha      -84586.56846727 eV
  | Energy correction for multipole
  | error in Hartree potential    :           0.00000000 Ha           0.00000000 eV
  | Sum of eigenvalues per atom                           :       -2011.64982941 eV
  | Total energy (T->0) per atom                          :       -3685.70083469 eV  <-- do not rely on this value for anything but (periodic) metals
  | Electronic free energy per atom                       :       -3685.70083469 eV
  Initialize hartree_potential_storage
  Max. number of atoms included in rho_multipole:           12

  End scf initialization - timings             :  max(cpu_time)    wall_clock(cpu1)
  | Time for scf. initialization                :        0.115 s           0.115 s
  | Boundary condition initialization           :        0.000 s           0.000 s
  | Integration                                 :        0.046 s           0.046 s
  | Solution of K.-S. eqns.                     :        0.011 s           0.012 s
  | Grid partitioning                           :        0.035 s           0.035 s
  | Preloading free-atom quantities on grid     :        0.016 s           0.016 s
  | Free-atom superposition energy              :        0.005 s           0.005 s
  | Total energy evaluation                     :        0.000 s           0.000 s

  Partial memory accounting:
  | Current value for overall tracked memory usage:
  |   Minimum:        0.273 MB (on task 23)
  |   Maximum:        0.292 MB (on task  0)
  |   Average:        0.287 MB
  | Peak value for overall tracked memory usage:
  |   Minimum:        1.340 MB (on task  0 after allocating wave)
  |   Maximum:        1.426 MB (on task 17 after allocating wave)
  |   Average:        1.382 MB
  | Largest tracked array allocation so far:
  |   Minimum:        0.243 MB (H_times_psi on task  0)
  |   Maximum:        0.469 MB (all_coords on task  9)
  |   Average:        0.278 MB
  Note:  These values currently only include a subset of arrays which are explicitly tracked.
  The "true" memory usage will be greater.
------------------------------------------------------------
  Evaluating new KS density.
  Integration grid: deviation in total charge (<rho> - N_e) =   8.526513E-14

  Time for density update prior                :  max(cpu_time)    wall_clock(cpu1)
  | self-consistency iterative process          :        0.028 s           0.028 s

------------------------------------------------------------
          Begin self-consistency iteration #    1

  Date     :  20220517, Time     :  112613.063
------------------------------------------------------------
  Pulay mixing of updated and previous charge densities.
  Renormalizing the density to the exact electron count on the 3D integration grid.
  | Formal number of electrons (from input files) :     120.0000000000
  | Integrated number of electrons on 3D grid     :     120.0000000000
  | Charge integration error                      :       0.0000000000
  | Normalization factor for density and gradient :       1.0000000000

  Evaluating partitioned Hartree potential by multipole expansion.
  | Original multipole sum: apparent total charge =   0.435349E-13
  | Sum of charges compensated after spline to logarithmic grids =   0.128052E-03
  | Analytical far-field extrapolation by fixed multipoles:
  | Hartree multipole sum: apparent total charge =   0.455750E-13
  Summing up the Hartree potential.
  Time summed over all CPUs for potential: real work        0.383 s, elapsed        0.392 s
  | RMS charge density error from multipole expansion :   0.101408E-01

  Integrating Hamiltonian matrix: batch-based integration.
  Time summed over all CPUs for integration: real work        0.666 s, elapsed        0.707 s

  Updating Kohn-Sham eigenvalues and eigenvectors using ELSI and the ELPA eigensolver.
  Starting ELPA eigensolver
  Finished transformation to standard eigenproblem
  | Time :     0.000 s
  Finished solving standard eigenproblem
  | Time :     0.004 s
  Finished back-transformation of eigenvectors
  | Time :     0.000 s

  Obtaining occupation numbers and chemical potential using ELSI.
  | Chemical potential (Fermi level):    -7.88235660 eV
  Writing Kohn-Sham eigenvalues.

  State    Occupation    Eigenvalue [Ha]    Eigenvalue [eV]
      1       2.00000         -55.658294        -1514.53923
      2       2.00000         -55.657423        -1514.51555
      3       2.00000         -55.657422        -1514.51550
      4       2.00000         -24.264623         -660.27399
      5       2.00000         -24.261822         -660.19775
      6       2.00000         -24.261819         -660.19769
      7       2.00000         -24.079749         -655.24332
      8       2.00000         -24.070472         -654.99087
      9       2.00000         -24.070470         -654.99082
     10       2.00000         -24.066905         -654.89380
     11       2.00000         -24.066903         -654.89375
     12       2.00000         -24.064538         -654.82940
     13       2.00000          -4.096024         -111.45847
     14       2.00000          -4.095041         -111.43172
     15       2.00000          -4.095038         -111.43165
     16       2.00000          -2.689589          -73.18743
     17       2.00000          -2.689481          -73.18449
     18       2.00000          -2.688666          -73.16233
     19       2.00000          -2.688636          -73.16152
     20       2.00000          -2.688494          -73.15763
     21       2.00000          -2.688483          -73.15734
     22       2.00000          -2.687029          -73.11778
     23       2.00000          -2.685997          -73.08969
     24       2.00000          -2.685994          -73.08962
     25       2.00000          -1.183358          -32.20081
     26       2.00000          -1.176206          -32.00619
     27       2.00000          -1.175104          -31.97620
     28       2.00000          -1.024221          -27.87048
     29       2.00000          -1.016437          -27.65867
     30       2.00000          -1.016363          -27.65665
     31       2.00000          -1.011791          -27.53224
     32       2.00000          -1.011668          -27.52889
     33       2.00000          -1.010333          -27.49255
     34       2.00000          -0.569754          -15.50380
     35       2.00000          -0.568746          -15.47637
     36       2.00000          -0.540571          -14.70968
     37       2.00000          -0.528865          -14.39115
     38       2.00000          -0.488841          -13.30204
     39       2.00000          -0.481152          -13.09281
     40       2.00000          -0.477732          -12.99974
     41       2.00000          -0.471838          -12.83935
     42       2.00000          -0.467714          -12.72714
     43       2.00000          -0.404993          -11.02041
     44       2.00000          -0.394694          -10.74017
     45       2.00000          -0.392461          -10.67941
     46       2.00000          -0.368034          -10.01473
     47       2.00000          -0.366188           -9.96447
     48       2.00000          -0.364318           -9.91361
     49       2.00000          -0.338311           -9.20592
     50       2.00000          -0.336155           -9.14725
     51       2.00000          -0.333869           -9.08503
     52       2.00000          -0.329536           -8.96713
     53       2.00000          -0.329240           -8.95907
     54       2.00000          -0.326582           -8.88675
     55       2.00000          -0.321145           -8.73879
     56       2.00000          -0.320958           -8.73372
     57       2.00000          -0.320200           -8.71308
     58       2.00000          -0.319187           -8.68551
     59       2.00000          -0.318887           -8.67737
     60       2.00000          -0.318119           -8.65645
     61       0.00000          -0.164232           -4.46897
     62       0.00000          -0.100610           -2.73774
     63       0.00000          -0.099721           -2.71354
     64       0.00000          -0.056021           -1.52441
     65       0.00000          -0.030423           -0.82785
     66       0.00000          -0.028207           -0.76756
     67       0.00000          -0.026661           -0.72547
     68       0.00000           0.012166            0.33105
     69       0.00000           0.020171            0.54889
     70       0.00000           0.026234            0.71385
     71       0.00000           0.045560            1.23976
     72       0.00000           0.047214            1.28477
     73       0.00000           0.128727            3.50284
     74       0.00000           0.140509            3.82344
     75       0.00000           0.164987            4.48953
     76       0.00000           0.173127            4.71104
     77       0.00000           0.173720            4.72716
     78       0.00000           0.182496            4.96597
     79       0.00000           0.183359            4.98946
     80       0.00000           0.189323            5.15174
     81       0.00000           0.192374            5.23475
     82       0.00000           0.199874            5.43886
     83       0.00000           0.207691            5.65155
     84       0.00000           0.214427            5.83484
     85       0.00000           0.220039            5.98757
     86       0.00000           0.243510            6.62625
     87       0.00000           0.254988            6.93858
     88       0.00000           0.268751            7.31309
     89       0.00000           0.275504            7.49684
     90       0.00000           0.276661            7.52833
     91       0.00000           0.288816            7.85909
     92       0.00000           0.289424            7.87563
     93       0.00000           0.310385            8.44600
     94       0.00000           0.320077            8.70973
     95       0.00000           0.361619            9.84014
     96       0.00000           0.366874            9.98314

  Highest occupied state (VBM) at     -8.65645316 eV
  | Occupation number:      2.00000000

  Lowest unoccupied state (CBM) at    -4.46896895 eV
  | Occupation number:      0.00000000

  Overall HOMO-LUMO gap:      4.18748421 eV.

  Total energy components:
  | Sum of eigenvalues            :        -882.16496692 Ha      -24004.93010730 eV
  | XC energy correction          :        -145.61883341 Ha       -3962.49006638 eV
  | XC potential correction       :         189.61636844 Ha        5159.72390903 eV
  | Free-atom electrostatic energy:        -781.80794163 Ha      -21274.07650472 eV
  | Hartree energy correction     :          -5.16287394 Ha        -140.48894803 eV
  | Entropy correction            :           0.00000000 Ha           0.00000000 eV
  | ---------------------------
  | Total energy                  :       -1625.13824746 Ha      -44222.26171739 eV
  | Total energy, T -> 0          :       -1625.13824746 Ha      -44222.26171739 eV  <-- do not rely on this value for anything but (periodic) metals
  | Electronic free energy        :       -1625.13824746 Ha      -44222.26171739 eV

  Derived energy quantities:
  | Kinetic energy                :        1633.89964514 Ha       44460.67147827 eV
  | Electrostatic energy          :       -3113.41905919 Ha      -84720.44312929 eV
  | Energy correction for multipole
  | error in Hartree potential    :           0.04071589 Ha           1.10793561 eV
  | Sum of eigenvalues per atom                           :       -2000.41084227 eV
  | Total energy (T->0) per atom                          :       -3685.18847645 eV  <-- do not rely on this value for anything but (periodic) metals
  | Electronic free energy per atom                       :       -3685.18847645 eV
  Evaluating new KS density.
  Integration grid: deviation in total charge (<rho> - N_e) =   0.000000E+00

  Self-consistency convergence accuracy:
  | Change of charge density      :  0.6149E+00
  | Change of sum of eigenvalues  :  0.1349E+03 eV
  | Change of total energy        :  0.6148E+01 eV


------------------------------------------------------------
  End self-consistency iteration #     1       :  max(cpu_time)    wall_clock(cpu1)
  | Time for this iteration                     :        0.083 s           0.083 s
  | Charge density update                       :        0.029 s           0.029 s
  | Density mixing                              :        0.001 s           0.001 s
  | Hartree multipole update                    :        0.001 s           0.001 s
  | Hartree multipole summation                 :        0.017 s           0.017 s
  | Integration                                 :        0.030 s           0.030 s
  | Solution of K.-S. eqns.                     :        0.004 s           0.004 s
  | Total energy evaluation                     :        0.000 s           0.000 s

  Partial memory accounting:
  | Current value for overall tracked memory usage:
  |   Minimum:        0.273 MB (on task 23)
  |   Maximum:        0.292 MB (on task  0)
  |   Average:        0.287 MB
  | Peak value for overall tracked memory usage:
  |   Minimum:        1.340 MB (on task  0 after allocating wave)
  |   Maximum:        1.426 MB (on task 17 after allocating wave)
  |   Average:        1.382 MB
  | Largest tracked array allocation so far:
  |   Minimum:        0.728 MB (gradient_basis_wave on task  0)
  |   Maximum:        0.783 MB (gradient_basis_wave on task  7)
  |   Average:        0.758 MB
  Note:  These values currently only include a subset of arrays which are explicitly tracked.
  The "true" memory usage will be greater.
------------------------------------------------------------

------------------------------------------------------------
          Begin self-consistency iteration #    2

  Date     :  20220517, Time     :  112613.151
------------------------------------------------------------
  Pulay mixing of updated and previous charge densities.
  Renormalizing the density to the exact electron count on the 3D integration grid.
  | Formal number of electrons (from input files) :     120.0000000000
  | Integrated number of electrons on 3D grid     :     120.0000000000
  | Charge integration error                      :      -0.0000000000
  | Normalization factor for density and gradient :       1.0000000000

  Evaluating partitioned Hartree potential by multipole expansion.
  | Original multipole sum: apparent total charge =   0.348673E-14
  | Sum of charges compensated after spline to logarithmic grids =   0.888280E-04
  | Analytical far-field extrapolation by fixed multipoles:
  | Hartree multipole sum: apparent total charge =   0.357436E-14
  Summing up the Hartree potential.
  Time summed over all CPUs for potential: real work        0.382 s, elapsed        0.391 s
  | RMS charge density error from multipole expansion :   0.119892E-01

  Integrating Hamiltonian matrix: batch-based integration.
  Time summed over all CPUs for integration: real work        0.666 s, elapsed        0.711 s

  Updating Kohn-Sham eigenvalues and eigenvectors using ELSI and the ELPA eigensolver.
  Starting ELPA eigensolver
  Finished transformation to standard eigenproblem
  | Time :     0.001 s
  Finished solving standard eigenproblem
  | Time :     0.003 s
  Finished back-transformation of eigenvectors
  | Time :     0.000 s

  Obtaining occupation numbers and chemical potential using ELSI.
  | Chemical potential (Fermi level):    -8.07690697 eV
  Highest occupied state (VBM) at     -9.90383784 eV
  | Occupation number:      2.00000000

  Lowest unoccupied state (CBM) at    -4.68178290 eV
  | Occupation number:      0.00000000

  Overall HOMO-LUMO gap:      5.22205494 eV.

  Checking to see if s.c.f. parameters should be adjusted.

  Total energy components:
  | Sum of eigenvalues            :        -885.46754265 Ha      -24094.79776532 eV
  | XC energy correction          :        -145.08735892 Ha       -3948.02790961 eV
  | XC potential correction       :         188.91709835 Ha        5140.69580192 eV
  | Free-atom electrostatic energy:        -781.80794163 Ha      -21274.07650472 eV
  | Hartree energy correction     :          -1.61428775 Ha         -43.92700470 eV
  | Entropy correction            :           0.00000000 Ha           0.00000000 eV
  | ---------------------------
  | Total energy                  :       -1625.06003259 Ha      -44220.13338244 eV
  | Total energy, T -> 0          :       -1625.06003259 Ha      -44220.13338244 eV  <-- do not rely on this value for anything but (periodic) metals
  | Electronic free energy        :       -1625.06003259 Ha      -44220.13338244 eV

  Derived energy quantities:
  | Kinetic energy                :        1629.85349605 Ha       44350.57015965 eV
  | Electrostatic energy          :       -3109.82616972 Ha      -84622.67563248 eV
  | Energy correction for multipole
  | error in Hartree potential    :           0.04422637 Ha           1.20346085 eV
  | Sum of eigenvalues per atom                           :       -2007.89981378 eV
  | Total energy (T->0) per atom                          :       -3685.01111520 eV  <-- do not rely on this value for anything but (periodic) metals
  | Electronic free energy per atom                       :       -3685.01111520 eV
  Evaluating new KS density.
  Integration grid: deviation in total charge (<rho> - N_e) =   1.421085E-14

  Self-consistency convergence accuracy:
  | Change of charge density      :  0.5252E+00
  | Change of sum of eigenvalues  : -0.8987E+02 eV
  | Change of total energy        :  0.2128E+01 eV


------------------------------------------------------------
  End self-consistency iteration #     2       :  max(cpu_time)    wall_clock(cpu1)
  | Time for this iteration                     :        0.083 s           0.081 s
  | Charge density update                       :        0.027 s           0.027 s
  | Density mixing                              :        0.004 s           0.001 s
  | Hartree multipole update                    :        0.001 s           0.002 s
  | Hartree multipole summation                 :        0.017 s           0.016 s
  | Integration                                 :        0.030 s           0.030 s
  | Solution of K.-S. eqns.                     :        0.004 s           0.004 s
  | Total energy evaluation                     :        0.000 s           0.000 s

  Partial memory accounting:
  | Current value for overall tracked memory usage:
  |   Minimum:        0.274 MB (on task 23)
  |   Maximum:        0.293 MB (on task  0)
  |   Average:        0.288 MB
  | Peak value for overall tracked memory usage:
  |   Minimum:        1.340 MB (on task  0 after allocating wave)
  |   Maximum:        1.426 MB (on task 17 after allocating wave)
  |   Average:        1.382 MB
  | Largest tracked array allocation so far:
  |   Minimum:        0.728 MB (gradient_basis_wave on task  0)
  |   Maximum:        0.783 MB (gradient_basis_wave on task  7)
  |   Average:        0.758 MB
  Note:  These values currently only include a subset of arrays which are explicitly tracked.
  The "true" memory usage will be greater.
------------------------------------------------------------

------------------------------------------------------------
          Begin self-consistency iteration #    3

  Date     :  20220517, Time     :  112613.238
------------------------------------------------------------
  Pulay mixing of updated and previous charge densities.
  Renormalizing the density to the exact electron count on the 3D integration grid.
  | Formal number of electrons (from input files) :     120.0000000000
  | Integrated number of electrons on 3D grid     :     120.0000000000
  | Charge integration error                      :      -0.0000000000
  | Normalization factor for density and gradient :       1.0000000000

  Evaluating partitioned Hartree potential by multipole expansion.
  | Original multipole sum: apparent total charge =  -0.291652E-13
  | Sum of charges compensated after spline to logarithmic grids =   0.116248E-03
  | Analytical far-field extrapolation by fixed multipoles:
  | Hartree multipole sum: apparent total charge =  -0.301630E-13
  Summing up the Hartree potential.
  Time summed over all CPUs for potential: real work        0.382 s, elapsed        0.391 s
  | RMS charge density error from multipole expansion :   0.165190E-01

  Integrating Hamiltonian matrix: batch-based integration.
  Time summed over all CPUs for integration: real work        0.665 s, elapsed        0.709 s

  Updating Kohn-Sham eigenvalues and eigenvectors using ELSI and the ELPA eigensolver.
  Starting ELPA eigensolver
  Finished transformation to standard eigenproblem
  | Time :     0.001 s
  Finished solving standard eigenproblem
  | Time :     0.003 s
  Finished back-transformation of eigenvectors
  | Time :     0.000 s

  Obtaining occupation numbers and chemical potential using ELSI.
  | Chemical potential (Fermi level):    -8.15628418 eV
  Highest occupied state (VBM) at     -9.68714666 eV
  | Occupation number:      2.00000000

  Lowest unoccupied state (CBM) at    -4.94305752 eV
  | Occupation number:      0.00000000

  Overall HOMO-LUMO gap:      4.74408914 eV.

  Total energy components:
  | Sum of eigenvalues            :        -886.68272733 Ha      -24127.86462284 eV
  | XC energy correction          :        -145.04946203 Ha       -3946.99668280 eV
  | XC potential correction       :         188.86594937 Ha        5139.30396739 eV
  | Free-atom electrostatic energy:        -781.80794163 Ha      -21274.07650472 eV
  | Hartree energy correction     :          -0.38503088 Ha         -10.47722319 eV
  | Entropy correction            :           0.00000000 Ha           0.00000000 eV
  | ---------------------------
  | Total energy                  :       -1625.05921248 Ha      -44220.11106615 eV
  | Total energy, T -> 0          :       -1625.05921248 Ha      -44220.11106615 eV  <-- do not rely on this value for anything but (periodic) metals
  | Electronic free energy        :       -1625.05921248 Ha      -44220.11106615 eV

  Derived energy quantities:
  | Kinetic energy                :        1628.13225069 Ha       44303.73269034 eV
  | Electrostatic energy          :       -3108.14200114 Ha      -84576.84707370 eV
  | Energy correction for multipole
  | error in Hartree potential    :           0.05849900 Ha           1.59183869 eV
  | Sum of eigenvalues per atom                           :       -2010.65538524 eV
  | Total energy (T->0) per atom                          :       -3685.00925551 eV  <-- do not rely on this value for anything but (periodic) metals
  | Electronic free energy per atom                       :       -3685.00925551 eV
  Evaluating new KS density.
  Integration grid: deviation in total charge (<rho> - N_e) =  -1.421085E-14

  Self-consistency convergence accuracy:
  | Change of charge density      :  0.1328E+00
  | Change of sum of eigenvalues  : -0.3307E+02 eV
  | Change of total energy        :  0.2232E-01 eV


------------------------------------------------------------
  End self-consistency iteration #     3       :  max(cpu_time)    wall_clock(cpu1)
  | Time for this iteration                     :        0.083 s           0.081 s
  | Charge density update                       :        0.027 s           0.027 s
  | Density mixing                              :        0.004 s           0.001 s
  | Hartree multipole update                    :        0.001 s           0.002 s
  | Hartree multipole summation                 :        0.017 s           0.016 s
  | Integration                                 :        0.030 s           0.030 s
  | Solution of K.-S. eqns.                     :        0.004 s           0.004 s
  | Total energy evaluation                     :        0.000 s           0.001 s

  Partial memory accounting:
  | Current value for overall tracked memory usage:
  |   Minimum:        0.274 MB (on task 23)
  |   Maximum:        0.293 MB (on task  0)
  |   Average:        0.288 MB
  | Peak value for overall tracked memory usage:
  |   Minimum:        1.340 MB (on task  0 after allocating wave)
  |   Maximum:        1.426 MB (on task 17 after allocating wave)
  |   Average:        1.382 MB
  | Largest tracked array allocation so far:
  |   Minimum:        0.728 MB (gradient_basis_wave on task  0)
  |   Maximum:        0.783 MB (gradient_basis_wave on task  7)
  |   Average:        0.758 MB
  Note:  These values currently only include a subset of arrays which are explicitly tracked.
  The "true" memory usage will be greater.
------------------------------------------------------------

------------------------------------------------------------
          Begin self-consistency iteration #    4

  Date     :  20220517, Time     :  112613.325
------------------------------------------------------------
  Pulay mixing of updated and previous charge densities.
  Renormalizing the density to the exact electron count on the 3D integration grid.
  | Formal number of electrons (from input files) :     120.0000000000
  | Integrated number of electrons on 3D grid     :     120.0000000000
  | Charge integration error                      :       0.0000000000
  | Normalization factor for density and gradient :       1.0000000000

  Evaluating partitioned Hartree potential by multipole expansion.
  | Original multipole sum: apparent total charge =   0.140238E-13
  | Sum of charges compensated after spline to logarithmic grids =   0.129943E-03
  | Analytical far-field extrapolation by fixed multipoles:
  | Hartree multipole sum: apparent total charge =   0.127478E-13
  Summing up the Hartree potential.
  Time summed over all CPUs for potential: real work        0.382 s, elapsed        0.391 s
  | RMS charge density error from multipole expansion :   0.188638E-01

  Integrating Hamiltonian matrix: batch-based integration.
  Time summed over all CPUs for integration: real work        0.666 s, elapsed        0.710 s

  Updating Kohn-Sham eigenvalues and eigenvectors using ELSI and the ELPA eigensolver.
  Starting ELPA eigensolver
  Finished transformation to standard eigenproblem
  | Time :     0.000 s
  Finished solving standard eigenproblem
  | Time :     0.003 s
  Finished back-transformation of eigenvectors
  | Time :     0.000 s

  Obtaining occupation numbers and chemical potential using ELSI.
  | Chemical potential (Fermi level):    -8.15841183 eV
  Highest occupied state (VBM) at     -9.79628660 eV
  | Occupation number:      2.00000000

  Lowest unoccupied state (CBM) at    -4.90359068 eV
  | Occupation number:      0.00000000

  Overall HOMO-LUMO gap:      4.89269592 eV.

  Total energy components:
  | Sum of eigenvalues            :        -886.89204059 Ha      -24133.56032645 eV
  | XC energy correction          :        -145.02838678 Ha       -3946.42319621 eV
  | XC potential correction       :         188.83739401 Ha        5138.52693643 eV
  | Free-atom electrostatic energy:        -781.80794163 Ha      -21274.07650472 eV
  | Hartree energy correction     :          -0.16554250 Ha          -4.50464075 eV
  | Entropy correction            :           0.00000000 Ha           0.00000000 eV
  | ---------------------------
  | Total energy                  :       -1625.05651749 Ha      -44220.03773171 eV
  | Total energy, T -> 0          :       -1625.05651749 Ha      -44220.03773171 eV  <-- do not rely on this value for anything but (periodic) metals
  | Electronic free energy        :       -1625.05651749 Ha      -44220.03773171 eV

  Derived energy quantities:
  | Kinetic energy                :        1627.34512209 Ha       44282.31383147 eV
  | Electrostatic energy          :       -3107.37325280 Ha      -84555.92836697 eV
  | Energy correction for multipole
  | error in Hartree potential    :           0.06561441 Ha           1.78545903 eV
  | Sum of eigenvalues per atom                           :       -2011.13002720 eV
  | Total energy (T->0) per atom                          :       -3685.00314431 eV  <-- do not rely on this value for anything but (periodic) metals
  | Electronic free energy per atom                       :       -3685.00314431 eV
  Evaluating new KS density.
  Integration grid: deviation in total charge (<rho> - N_e) =  -2.842171E-14

  Self-consistency convergence accuracy:
  | Change of charge density      :  0.9454E-01
  | Change of sum of eigenvalues  : -0.5696E+01 eV
  | Change of total energy        :  0.7333E-01 eV


------------------------------------------------------------
  End self-consistency iteration #     4       :  max(cpu_time)    wall_clock(cpu1)
  | Time for this iteration                     :        0.084 s           0.081 s
  | Charge density update                       :        0.027 s           0.027 s
  | Density mixing                              :        0.004 s           0.002 s
  | Hartree multipole update                    :        0.001 s           0.001 s
  | Hartree multipole summation                 :        0.017 s           0.016 s
  | Integration                                 :        0.030 s           0.030 s
  | Solution of K.-S. eqns.                     :        0.004 s           0.005 s
  | Total energy evaluation                     :        0.000 s           0.000 s

  Partial memory accounting:
  | Current value for overall tracked memory usage:
  |   Minimum:        0.274 MB (on task 23)
  |   Maximum:        0.293 MB (on task  0)
  |   Average:        0.288 MB
  | Peak value for overall tracked memory usage:
  |   Minimum:        1.340 MB (on task  0 after allocating wave)
  |   Maximum:        1.426 MB (on task 17 after allocating wave)
  |   Average:        1.382 MB
  | Largest tracked array allocation so far:
  |   Minimum:        0.728 MB (gradient_basis_wave on task  0)
  |   Maximum:        0.783 MB (gradient_basis_wave on task  7)
  |   Average:        0.758 MB
  Note:  These values currently only include a subset of arrays which are explicitly tracked.
  The "true" memory usage will be greater.
------------------------------------------------------------

------------------------------------------------------------
          Begin self-consistency iteration #    5

  Date     :  20220517, Time     :  112613.412
------------------------------------------------------------
  Pulay mixing of updated and previous charge densities.
  Renormalizing the density to the exact electron count on the 3D integration grid.
  | Formal number of electrons (from input files) :     120.0000000000
  | Integrated number of electrons on 3D grid     :     120.0000000000
  | Charge integration error                      :      -0.0000000000
  | Normalization factor for density and gradient :       1.0000000000

  Evaluating partitioned Hartree potential by multipole expansion.
  | Original multipole sum: apparent total charge =  -0.292951E-13
  | Sum of charges compensated after spline to logarithmic grids =   0.129985E-03
  | Analytical far-field extrapolation by fixed multipoles:
  | Hartree multipole sum: apparent total charge =  -0.266970E-13
  Summing up the Hartree potential.
  Time summed over all CPUs for potential: real work        0.382 s, elapsed        0.391 s
  | RMS charge density error from multipole expansion :   0.185830E-01

  Integrating Hamiltonian matrix: batch-based integration.
  Time summed over all CPUs for integration: real work        0.666 s, elapsed        0.708 s

  Updating Kohn-Sham eigenvalues and eigenvectors using ELSI and the ELPA eigensolver.
  Starting ELPA eigensolver
  Finished transformation to standard eigenproblem
  | Time :     0.000 s
  Finished solving standard eigenproblem
  | Time :     0.004 s
  Finished back-transformation of eigenvectors
  | Time :     0.000 s

  Obtaining occupation numbers and chemical potential using ELSI.
  | Chemical potential (Fermi level):    -8.12254736 eV
  Highest occupied state (VBM) at     -9.84026245 eV
  | Occupation number:      2.00000000

  Lowest unoccupied state (CBM) at    -4.82620675 eV
  | Occupation number:      0.00000000

  Overall HOMO-LUMO gap:      5.01405571 eV.

  Total energy components:
  | Sum of eigenvalues            :        -886.62540972 Ha      -24126.30493138 eV
  | XC energy correction          :        -145.02212434 Ha       -3946.25278649 eV
  | XC potential correction       :         188.82942383 Ha        5138.31005686 eV
  | Free-atom electrostatic energy:        -781.80794163 Ha      -21274.07650472 eV
  | Hartree energy correction     :          -0.43027494 Ha         -11.70837685 eV
  | Entropy correction            :           0.00000000 Ha           0.00000000 eV
[...]
   Total forces(   7)            :  0.660349E+00  0.360733E+01  0.768597E-01
  atom #    8
   Hellmann-Feynman              :  0.835704E-01 -0.658474E+00  0.312739E+00
   Ionic forces                  :  0.000000E+00  0.000000E+00  0.000000E+00
   Multipole                     :  0.163600E+00 -0.528609E-01  0.181683E+00
   Hartree pot. SCF incomplete   : -0.143776E-07 -0.799507E-07 -0.208055E-06
   Pulay + GGA                   : -0.122273E+01  0.105764E+01 -0.156171E+01
   ----------------------------------------------------------------
   Total forces(   8)            : -0.975561E+00  0.346306E+00 -0.106729E+01
  atom #    9
   Hellmann-Feynman              :  0.376352E-01  0.781601E+00 -0.322131E+00
   Ionic forces                  :  0.000000E+00  0.000000E+00  0.000000E+00
   Multipole                     :  0.296401E-01  0.716956E-01 -0.212642E+00
   Hartree pot. SCF incomplete   : -0.145784E-06  0.105085E-05  0.932319E-06
   Pulay + GGA                   : -0.265768E+00 -0.130269E+01  0.193224E+01
   ----------------------------------------------------------------
   Total forces(   9)            : -0.198493E+00 -0.449387E+00  0.139747E+01
  atom #   10
   Hellmann-Feynman              : -0.371437E+00 -0.964799E+00  0.263232E+01
   Ionic forces                  :  0.000000E+00  0.000000E+00  0.000000E+00
   Multipole                     : -0.826615E-01 -0.324766E+00  0.596616E+00
   Hartree pot. SCF incomplete   : -0.983693E-07 -0.522082E-06  0.717050E-06
   Pulay + GGA                   :  0.924867E+00  0.263049E+01 -0.658066E+01
   ----------------------------------------------------------------
   Total forces(  10)            :  0.470768E+00  0.134092E+01 -0.335172E+01
  atom #   11
   Hellmann-Feynman              :  0.115989E+00  0.250949E+01 -0.102256E+01
   Ionic forces                  :  0.000000E+00  0.000000E+00  0.000000E+00
   Multipole                     :  0.404963E-01  0.674537E+00 -0.338312E+00
   Hartree pot. SCF incomplete   :  0.406661E-06 -0.123635E-05 -0.270533E-05
   Pulay + GGA                   : -0.261667E+00 -0.669604E+01  0.239180E+01
   ----------------------------------------------------------------
   Total forces(  11)            : -0.105181E+00 -0.351201E+01  0.103093E+01
  atom #   12
   Hellmann-Feynman              : -0.153267E+00 -0.660609E+00  0.280590E+00
   Ionic forces                  :  0.000000E+00  0.000000E+00  0.000000E+00
   Multipole                     : -0.207659E+00 -0.575458E-01  0.127373E+00
   Hartree pot. SCF incomplete   :  0.680941E-07 -0.648607E-07 -0.180971E-06
   Pulay + GGA                   :  0.159247E+01  0.109381E+01 -0.115238E+01
   ----------------------------------------------------------------
   Total forces(  12)            :  0.123154E+01  0.375654E+00 -0.744423E+00


  Self-consistency convergence accuracy:
  | Change of charge density      :  0.1242E-06
  | Change of sum of eigenvalues  : -0.9600E-05 eV
  | Change of total energy        :  0.1732E-08 eV
  | Change of forces              :  0.4462E-06 eV/A

  Writing Kohn-Sham eigenvalues.

  State    Occupation    Eigenvalue [Ha]    Eigenvalue [eV]
      1       2.00000         -55.642170        -1514.10048
      2       2.00000         -55.640608        -1514.05797
      3       2.00000         -55.640604        -1514.05788
      4       2.00000         -24.329523         -662.04001
      5       2.00000         -24.328350         -662.00808
      6       2.00000         -24.328345         -662.00794
      7       2.00000         -24.225593         -659.21193
      8       2.00000         -24.217289         -658.98595
      9       2.00000         -24.217285         -658.98584
     10       2.00000         -24.214220         -658.90245
     11       2.00000         -24.214217         -658.90236
     12       2.00000         -24.213087         -658.87163
     13       2.00000          -4.093550         -111.39115
     14       2.00000          -4.091824         -111.34418
     15       2.00000          -4.091822         -111.34415
     16       2.00000          -2.687186          -73.12206
     17       2.00000          -2.686353          -73.09938
     18       2.00000          -2.685512          -73.07650
     19       2.00000          -2.685495          -73.07603
     20       2.00000          -2.684662          -73.05338
     21       2.00000          -2.684639          -73.05274
     22       2.00000          -2.681829          -72.97627
     23       2.00000          -2.680020          -72.92705
     24       2.00000          -2.680017          -72.92698
     25       2.00000          -1.203697          -32.75427
     26       2.00000          -1.196798          -32.56652
     27       2.00000          -1.196212          -32.55058
     28       2.00000          -1.069438          -29.10088
     29       2.00000          -1.061247          -28.87801
     30       2.00000          -1.061182          -28.87623
     31       2.00000          -1.057120          -28.76570
     32       2.00000          -1.056998          -28.76237
     33       2.00000          -1.056487          -28.74848
     34       2.00000          -0.588254          -16.00720
     35       2.00000          -0.587849          -15.99619
     36       2.00000          -0.561198          -15.27097
     37       2.00000          -0.547116          -14.88779
     38       2.00000          -0.506786          -13.79036
     39       2.00000          -0.502234          -13.66649
     40       2.00000          -0.497786          -13.54545
     41       2.00000          -0.491606          -13.37727
     42       2.00000          -0.487807          -13.27390
     43       2.00000          -0.440602          -11.98939
     44       2.00000          -0.432657          -11.77320
     45       2.00000          -0.430113          -11.70397
     46       2.00000          -0.411777          -11.20503
     47       2.00000          -0.409540          -11.14414
     48       2.00000          -0.407761          -11.09575
     49       2.00000          -0.378614          -10.30262
     50       2.00000          -0.376301          -10.23966
     51       2.00000          -0.372968          -10.14899
     52       2.00000          -0.369929          -10.06628
     53       2.00000          -0.369250          -10.04780
     54       2.00000          -0.367322           -9.99533
     55       2.00000          -0.363162           -9.88213
     56       2.00000          -0.363153           -9.88189
     57       2.00000          -0.362469           -9.86329
     58       2.00000          -0.361737           -9.84336
     59       2.00000          -0.361133           -9.82693
     60       2.00000          -0.360685           -9.81474
     61       0.00000          -0.177670           -4.83466
     62       0.00000          -0.114084           -3.10437
     63       0.00000          -0.113084           -3.07716
     64       0.00000          -0.062957           -1.71315
     65       0.00000          -0.036047           -0.98090
     66       0.00000          -0.033051           -0.89936
     67       0.00000          -0.031314           -0.85210
     68       0.00000           0.009401            0.25581
     69       0.00000           0.015493            0.42158
     70       0.00000           0.020141            0.54807
     71       0.00000           0.039399            1.07211
     72       0.00000           0.040919            1.11345
     73       0.00000           0.120677            3.28379
     74       0.00000           0.136541            3.71548
     75       0.00000           0.159181            4.33152
     76       0.00000           0.167932            4.56966
     77       0.00000           0.169049            4.60006
     78       0.00000           0.174729            4.75462
     79       0.00000           0.177526            4.83074
     80       0.00000           0.182958            4.97855
     81       0.00000           0.183973            5.00615
     82       0.00000           0.193470            5.26459
     83       0.00000           0.200659            5.46021
     84       0.00000           0.205938            5.60387
     85       0.00000           0.213282            5.80371
     86       0.00000           0.235941            6.42029
     87       0.00000           0.248917            6.77338
     88       0.00000           0.263031            7.15744
     89       0.00000           0.269599            7.33617
     90       0.00000           0.271214            7.38012
     91       0.00000           0.283114            7.70393
     92       0.00000           0.284893            7.75234
     93       0.00000           0.305552            8.31449
     94       0.00000           0.313538            8.53181
     95       0.00000           0.352316            9.58700
     96       0.00000           0.357716            9.73395

  Highest occupied state (VBM) at     -9.81474379 eV
  | Occupation number:      2.00000000

  Lowest unoccupied state (CBM) at    -4.83465546 eV
  | Occupation number:      0.00000000

  Overall HOMO-LUMO gap:      4.98008833 eV.
  | Chemical Potential                          :    -8.12348583 eV

  Self-consistency cycle converged.


------------------------------------------------------------
  End self-consistency iteration #    14       :  max(cpu_time)    wall_clock(cpu1)
  | Time for this iteration                     :        0.297 s           0.299 s
  | Charge density & force component update     :        0.150 s           0.151 s
  | Density mixing                              :        0.008 s           0.008 s
  | Hartree multipole update                    :        0.001 s           0.001 s
  | Hartree multipole summation                 :        0.050 s           0.050 s
  | Hartree pot. SCF incomplete forces          :        0.032 s           0.032 s
  | Integration                                 :        0.032 s           0.032 s
  | Solution of K.-S. eqns.                     :        0.023 s           0.023 s
  | Total energy evaluation                     :        0.000 s           0.000 s

  Partial memory accounting:
  | Current value for overall tracked memory usage:
  |   Minimum:        0.274 MB (on task 23)
  |   Maximum:        0.293 MB (on task  0)
  |   Average:        0.289 MB
  | Peak value for overall tracked memory usage:
  |   Minimum:        2.994 MB (on task  0 after allocating hessian_basis_wave)
  |   Maximum:        3.177 MB (on task 17 after allocating hessian_basis_wave)
  |   Average:        3.089 MB
  | Largest tracked array allocation so far:
  |   Minimum:        1.456 MB (hessian_basis_wave on task  0)
  |   Maximum:        1.566 MB (hessian_basis_wave on task  7)
  |   Average:        1.515 MB
  Note:  These values currently only include a subset of arrays which are explicitly tracked.
  The "true" memory usage will be greater.
------------------------------------------------------------
  Removing unitary transformations (pure translations, rotations) from forces on atoms.
  Atomic forces before filtering:
  | Net force on center of mass :   0.528945E-02 -0.287141E-02  0.107485E-02 eV/A
  | Net torque on center of mass:   0.864974E-03  0.217293E-02  0.531462E-02 eV
  Atomic forces after filtering:
  | Net force on center of mass :  -0.178406E-15 -0.178406E-15  0.535218E-15 eV/A
  | Net torque on center of mass:  -0.287946E-14  0.755268E-15  0.371733E-14 eV

  Energy and forces in a compact form:
  | Total energy uncorrected      :         -0.442200319553458E+05 eV
  | Total energy corrected        :         -0.442200319553458E+05 eV  <-- do not rely on this value for anything but (periodic) metals
  | Electronic free energy        :         -0.442200319553458E+05 eV
  Total atomic forces (unitary forces cleaned) [eV/Ang]:
  |    1         -0.347827144536591E+00          0.130119069727587E+01          0.227540196734921E+01
  |    2          0.248197674974546E+01         -0.600597414106097E+00         -0.931402637502949E+00
  |    3         -0.209652496905812E+01         -0.660949932955772E+00         -0.159855197225978E+01
  |    4         -0.216118358904421E+01         -0.269508266122762E+01          0.123241950743736E+01
  |    5          0.178817095195493E+01         -0.264474854522204E+01          0.180861960168101E+01
  |    6         -0.745257254371015E+00          0.358959961855788E+01         -0.127646856997820E+00
  |    7          0.659717332067592E+00          0.360774124054177E+01          0.767256612455442E-01
  |    8         -0.976058610551234E+00          0.346424333118767E+00         -0.106731845306133E+01
  |    9         -0.198868565441988E+00         -0.449202241490327E+00          0.139739442761820E+01
  |   10          0.470189997761501E+00          0.134127903647944E+01         -0.335183950455222E+01
  |   11         -0.105395704800997E+00         -0.351173248136688E+01          0.103078388263476E+01
  |   12          0.123106080627468E+01          0.376078350394998E+00         -0.744585623591977E+00

  ------------------------------------ 
  Start decomposition of the XC Energy 
  ------------------------------------ 
  X and C from original XC functional choice 
  Hartree-Fock Energy :          0.000000000 Ha              0.000000000 eV
  X Energy            :       -140.102680084 Ha          -3812.387897243 eV
  C Energy            :         -4.925326819 Ha           -134.024961871 eV
  Total XC Energy     :       -145.028006903 Ha          -3946.412859114 eV
  ------------------------------------ 
  LDA X and C from self-consistent density 
  X Energy LDA        :       -132.661379074 Ha          -3609.899794284 eV
  C Energy LDA        :         -8.816544491 Ha           -239.910382097 eV
  ------------------------------------ 
  End decomposition of the XC Energy 
  ------------------------------------ 

------------------------------------------------------------

------------------------------------------------------------------------------
  Final output of selected total energy values:

  The following output summarizes some interesting total energy values
  at the end of a run (AFTER all relaxation, molecular dynamics, etc.).

  | Total energy of the DFT / Hartree-Fock s.c.f. calculation      :         -44220.031955346 eV
  | Final zero-broadening corrected energy (caution - metals only) :         -44220.031955346 eV
  | For reference only, the value of 1 Hartree used in FHI-aims is :             27.211384500 eV

  Before relying on these values, please be sure to understand exactly which
  total energy value is referred to by a given number. Different objects may
  all carry the same name 'total energy'. Definitions:

  Total energy of the DFT / Hartree-Fock s.c.f. calculation:
  | Note that this energy does not include ANY quantities calculated after the
  | s.c.f. cycle, in particular not ANY RPA, MP2, etc. many-body perturbation terms.

  Final zero-broadening corrected energy:
  | For metallic systems only, a broadening of the occupation numbers at the Fermi
  | level can be extrapolated back to zero broadening by an electron-gas inspired
  | formula. For all systems that are not real metals, this value can be
  | meaningless and should be avoided.

------------------------------------------------------------------------------
  Methods described in the following list of references were used in this FHI-aims run.
  If you publish the results, please make sure to cite these reference if they apply.
  FHI-aims is an academic code, and for our developers (often, Ph.D. students
  and postdocs), scientific credit in the community is essential.
  Thank you for helping us!

  For any use of FHI-aims, please cite:

    Volker Blum, Ralf Gehrke, Felix Hanke, Paula Havu, Ville Havu,
    Xinguo Ren, Karsten Reuter, and Matthias Scheffler
    'Ab initio molecular simulations with numeric atom-centered orbitals'
    Computer Physics Communications 180, 2175-2196 (2009)
    http://dx.doi.org/10.1016/j.cpc.2009.06.022


  The ELSI infrastructure was used in your run to solve the Kohn-Sham electronic structure.
  Please check out http://elsi-interchange.org to learn more.
  If scalability is important for your project, please acknowledge ELSI by citing:

    V. W-z. Yu, F. Corsetti, A. Garcia, W. P. Huhn, M. Jacquelin, W. Jia,
    B. Lange, L. Lin, J. Lu, W. Mi, A. Seifitokaldani, A. Vazquez-Mayagoitia,
    C. Yang, H. Yang, and V. Blum
    'ELSI: A unified software interface for Kohn-Sham electronic structure solvers'
    Computer Physics Communications 222, 267-285 (2018).
    http://dx.doi.org/10.1016/j.cpc.2017.09.007


  For the real-space grid partitioning and parallelization used in this calculation, please cite:

    Ville Havu, Volker Blum, Paula Havu, and Matthias Scheffler,
    'Efficient O(N) integration for all-electron electronic structure calculation'
    'using numerically tabulated basis functions'
    Journal of Computational Physics 228, 8367-8379 (2009).
    http://dx.doi.org/10.1016/j.jcp.2009.08.008

  Of course, there are many other important community references, e.g., those cited in the
  above references. Our list is limited to references that describe implementations in the
  FHI-aims code. The reason is purely practical (length of this list) - please credit others as well.

------------------------------------------------------------
          Leaving FHI-aims.
          Date     :  20220517, Time     :  112614.857

          Computational steps:
          | Number of self-consistency cycles          :           14
          | Number of SCF (re)initializations          :            1

          Detailed time accounting                     :  max(cpu_time)    wall_clock(cpu1)
          | Total time                                  :        2.097 s           2.167 s
          | Preparation time                            :        0.184 s           0.185 s
          | Boundary condition initalization            :        0.000 s           0.000 s
          | Grid partitioning                           :        0.035 s           0.035 s
          | Preloading free-atom quantities on grid     :        0.016 s           0.016 s
          | Free-atom superposition energy              :        0.005 s           0.005 s
          | Total time for integrations                 :        0.476 s           0.477 s
          | Total time for solution of K.-S. equations  :        0.170 s           0.172 s
          | Total time for density & force components   :        0.660 s           0.662 s
          | Total time for mixing                       :        0.075 s           0.042 s
          | Total time for Hartree multipole update     :        0.030 s           0.032 s
          | Total time for Hartree multipole sum        :        0.313 s           0.311 s
          | Total time for total energy evaluation      :        0.004 s           0.003 s
          | Total time NSC force correction             :        0.064 s           0.064 s
          | Total time for scaled ZORA corrections      :        0.000 s           0.000 s

          Partial memory accounting:
          | Residual value for overall tracked memory usage across tasks:     0.000000 MB (should be 0.000000 MB)
          | Peak values for overall tracked memory usage:
          |   Minimum:        2.994 MB (on task  0 after allocating hessian_basis_wave)
          |   Maximum:        3.177 MB (on task 17 after allocating hessian_basis_wave)
          |   Average:        3.089 MB
          | Largest tracked array allocation:
          |   Minimum:        1.456 MB (hessian_basis_wave on task  0)
          |   Maximum:        1.566 MB (hessian_basis_wave on task  7)
          |   Average:        1.515 MB
          Note:  These values currently only include a subset of arrays which are explicitly tracked.
          The "true" memory usage will be greater.

          Have a nice day.
------------------------------------------------------------
