12
Properties=species:S:1:pos:R:3:forces:R:3 energy=-186.93070636 pbc="F F F"
Al    0.377256393    -0.7728161579999999    1.566052339    -0.12966    0.764297    0.822636
Al    2.094789365    -1.713355072    -0.45872949700000004    1.094306    -0.323048    -0.325319
Al    -0.667099181    -1.748825158    -0.861085743    -0.947551    -0.349267    -0.622781
F    3.367897307    -0.686989193    -1.0389105799999998    0.462802    0.693712    -0.274993
F    -1.7471942539999998    -0.752680888    -1.784086997    -0.382419    0.682855    -0.398125
F    2.724468595    -3.3334606940000002    -0.507401443    0.079116    -0.82988    0.047021
F    -1.215781566    -3.384064802    -1.08142392    -0.068346    -0.831776    0.025538
F    1.7887861969999999    -1.360388393    1.0521576019999999    0.407232    -0.19059    0.519225
F    0.802682164    -1.608685282    -1.280500265    0.090847    0.302407    -0.650259
F    0.134644352    -1.067301163    3.257374489    -0.109082    -0.364791    0.780928
F    0.395705571    0.958282699    1.286809536    0.036254    0.648752    -0.306049
F    -0.8137862680000001    -1.393812383    0.6730100139999999    -0.533498    -0.202671    0.382178
