********************************************************************************
*                       GENERAL UTILITY LATTICE PROGRAM                        *
*                                 Julian Gale                                  *
*                       Curtin Institute for Computation                       *
*                           Department of Chemistry                            *
*                    Curtin University, Western Australia                      *
********************************************************************************
* Version = 5.1.1 * Last modified =  11th January 2019                         *
********************************************************************************
*  single       - perform a single point run                                   *
*  phonon       - calculate phonons for final geometry                         *
*  eigenvectors - output phonon eigenvectors                                   *
********************************************************************************

  Job Started  at 10:30.31 17th May        2022                               

  Number of CPUs =     1

  Host name      = login04                                 


  Total number of configurations input =      1

********************************************************************************
*  Input for Configuration =   1                                               *
********************************************************************************

  Formula = Al3F9                                                       

  Number of irreducible atoms/shells =      21


  Total number atoms/shells =      21

  Dimensionality = 0               :  Cluster


  Charge on cluster =  -0.000000


  Initial cluster dipoles : x =     -0.009350 e.Angs
                            y =      0.011764 e.Angs
                            z =      0.063145 e.Angs

  Temperature of configuration =  0.000     K 

  Symmetry number =      1

  Cartesian coordinates of cluster :

--------------------------------------------------------------------------------
   No.  Atomic       x           y          z         Charge      Occupancy
        Label      (Angs)      (Angs)     (Angs)        (e)         (Frac)  
--------------------------------------------------------------------------------
      1 Al    c      0.3433     -0.5622      1.7807     3.00000    1.000000    
      2 Al    c      2.4048     -1.8045     -0.5353     3.00000    1.000000    
      3 Al    c     -0.9400     -1.8474     -1.0226     3.00000    1.000000    
      4 F     c      3.5129     -0.4461     -1.1337     0.59000    1.000000    
      5 F     c     -1.8651     -0.5152     -1.9172     0.59000    1.000000    
      6 F     c      2.7452     -3.6239     -0.4891     0.59000    1.000000    
      7 F     c     -1.2335     -3.6750     -1.0687     0.59000    1.000000    
      8 F     c      1.9243     -1.4267      1.2461     0.59000    1.000000    
      9 F     c      0.8380     -1.4895     -1.5334     0.59000    1.000000    
     10 F     c      0.1006     -1.1974      3.5028     0.59000    1.000000    
     11 F     c      0.4087      1.1842      1.1779     0.59000    1.000000    
     12 F     c     -0.9973     -1.4643      0.8204     0.59000    1.000000    
     13 F     s      3.5129     -0.4461     -1.1337    -1.59000    1.000000    
     14 F     s     -1.8651     -0.5152     -1.9172    -1.59000    1.000000    
     15 F     s      2.7452     -3.6239     -0.4891    -1.59000    1.000000    
     16 F     s     -1.2335     -3.6750     -1.0687    -1.59000    1.000000    
     17 F     s      1.9243     -1.4267      1.2461    -1.59000    1.000000    
     18 F     s      0.8380     -1.4895     -1.5334    -1.59000    1.000000    
     19 F     s      0.1006     -1.1974      3.5028    -1.59000    1.000000    
     20 F     s      0.4087      1.1842      1.1779    -1.59000    1.000000    
     21 F     s     -0.9973     -1.4643      0.8204    -1.59000    1.000000    
--------------------------------------------------------------------------------


  Brillouin zone sampling points :

--------------------------------------------------------------------------------
  Point number          x          y          z            Weight
--------------------------------------------------------------------------------
        1           0.000000   0.000000   0.000000     1.00000000
--------------------------------------------------------------------------------


********************************************************************************
*  General input information                                                   *
********************************************************************************

  Species output for all configurations : 

--------------------------------------------------------------------------------
  Species    Type    Atomic    Atomic    Charge       Radii (Angs)     Library
                     Number     Mass       (e)     Cova   Ionic  VDW   Symbol
--------------------------------------------------------------------------------
    Al       Core       13      26.98   3.000000   1.350  0.000  2.050          
    F        Core        9      19.00   0.590000   0.710  0.000  1.300          
    F        Shell       9       0.00  -1.590000   0.710  0.000  1.300          
--------------------------------------------------------------------------------


  Accuracy factor for short range sums = 12.000

  Time limit = Infinity

  Maximum range for interatomic potentials =    100000.000000 Angstroms

  General interatomic potentials :

--------------------------------------------------------------------------------
Atom  Types   Potential      Parameter       Value         Units   Cutoffs(Ang)
  1     2                                                            Min /  Max 
--------------------------------------------------------------------------------
Al   c F    s Buckingham    Buckingham A     3760.0008    eV        0.000 10.000
                            Buckingham rho  0.22200000    Ang       
                            Buckingham C     0.0000000    eV*Ang^6  
--------------------------------------------------------------------------------
F    s F    s Buck 4 range  Buck4 A          1127.7000    eV        0.000 12.000
                            Buck4 rho       0.27530000    Ang       
                            Buck4 C          15.830000    eV*Ang^6  
                            Buck4 minimum    2.7900000    Ang       
--------------------------------------------------------------------------------
F    c F    s Spring (c-s)  Spring k 2       20.770000    eV*Ang^-2 0.000  0.800
                            Spring k 4       0.0000000    eV*Ang^-4 
--------------------------------------------------------------------------------

********************************************************************************
*  Output for configuration   1                                                *
********************************************************************************


  Components of energy : 

--------------------------------------------------------------------------------
  Interatomic potentials     =           9.67523847 eV    
  Monopole - monopole (real) =        -178.52943895 eV    
--------------------------------------------------------------------------------
  Total lattice energy       =        -168.85420048 eV    
--------------------------------------------------------------------------------
  Total lattice energy       =          -16291.8492 kJ/mol
--------------------------------------------------------------------------------

  Born effective charge tensors : 

-------------------------------------------------------------------------------
  Atom             x           y             z
-------------------------------------------------------------------------------
    1 Al    x       2.1913     -0.0093     -0.0216
            y       0.0265      2.3748     -0.1982
            z      -0.0247      0.0477      2.3535
-------------------------------------------------------------------------------
    2 Al    x       2.3062     -0.0246     -0.0419
            y       0.0967      2.4930      0.0398
            z      -0.0590     -0.0976      2.2143
-------------------------------------------------------------------------------
    3 Al    x       2.2725      0.0461      0.0584
            y      -0.1093      2.4912      0.0111
            z       0.0785     -0.0855      2.2497
-------------------------------------------------------------------------------
    4 F     x      -0.9608     -0.4345      0.2267
            y      -0.3233     -0.8828      0.1651
            z       0.2031      0.2000     -0.6333
-------------------------------------------------------------------------------
    5 F     x      -0.8323      0.3595     -0.2888
            y       0.2631     -0.8651      0.2436
            z      -0.2665      0.3094     -0.7795
-------------------------------------------------------------------------------
    6 F     x      -0.6457      0.3137      0.0093
            y       0.2084     -1.2620      0.0017
            z       0.0180     -0.0458     -0.5227
-------------------------------------------------------------------------------
    7 F     x      -0.6163     -0.2715     -0.0383
            y      -0.1841     -1.2746     -0.0561
            z      -0.0454     -0.1319     -0.5395
-------------------------------------------------------------------------------
    8 F     x      -0.7703      0.2421      0.2790
            y       0.2346     -0.4441     -0.2209
            z       0.2852     -0.2259     -0.8614
-------------------------------------------------------------------------------
    9 F     x      -1.2613     -0.0158     -0.1095
            y      -0.0146     -0.3171      0.0158
            z      -0.1096      0.0238     -0.5274
-------------------------------------------------------------------------------
   10 F     x      -0.5527     -0.0377      0.1209
            y      -0.0218     -0.5921      0.1544
            z       0.1195      0.2637     -1.3793
-------------------------------------------------------------------------------
   11 F     x      -0.5155      0.0045      0.0061
            y      -0.0092     -1.2665      0.1296
            z       0.0074      0.0351     -0.5682
-------------------------------------------------------------------------------
   12 F     x      -0.6150     -0.1726     -0.2005
            y      -0.1669     -0.4546     -0.2858
            z      -0.2065     -0.2929     -1.0062
-------------------------------------------------------------------------------




  Moment of inertia tensor (10^-46 x kgm^2): 

-------------------------------------------------------------------------------
                x           y           z           Principal axis system
-------------------------------------------------------------------------------
       x        160.80        2.89       -1.72          160.587384
       y          2.89      208.76      -24.06          162.147584
       z         -1.72      -24.06      174.53          221.360016
-------------------------------------------------------------------------------
  Centre of mass (Ang) =     0.603406    -1.405582     0.069481
-------------------------------------------------------------------------------


  Vibrational Frequency Calculation : 

--------------------------------------------------------------------------------

  Frequencies (cm-1) and Eigenvectors : 

  Frequency    -192.3991  -75.7349  -32.4206   -0.0000   -0.0000    0.0000
  IR Intensity    0.0010    0.0113    0.0037    0.0000    0.0000    0.0000
     in X         0.0010    0.0002    0.0036    0.0000    0.0000    0.0000
     in Y         0.0000    0.0019    0.0000    0.0000    0.0000    0.0000
     in Z         0.0000    0.0092    0.0001    0.0000    0.0000    0.0000
  Raman Intsty    0.0000    0.0007    0.0000    0.0000    0.0000    0.0000

     1 x       0.454135 -0.034227  0.267794  0.057170  0.320876 -0.029312
     1 y       0.005832 -0.486551  0.003439 -0.007642 -0.028411 -0.325919
     1 z       0.066159  0.277839  0.039013  0.322121 -0.057623 -0.002530
     2 x      -0.166678 -0.019775 -0.114873  0.057170  0.320876 -0.029312
     2 y       0.147115  0.234155 -0.418209 -0.007642 -0.028411 -0.325919
     2 z      -0.530107 -0.157100 -0.044111  0.322121 -0.057623 -0.002530
     3 x      -0.307217  0.057873 -0.133162  0.057170  0.320876 -0.029312
     3 y      -0.153201  0.235153  0.415023 -0.007642 -0.028411 -0.325919
     3 z       0.461069 -0.145789  0.007977  0.322121 -0.057623 -0.002530
     4 x       0.025971 -0.000325 -0.122908  0.047976  0.269273 -0.024598
     4 y       0.089098  0.128553 -0.333465 -0.006413 -0.023842 -0.273505
     4 z      -0.138530 -0.089230 -0.012343  0.270318 -0.048356 -0.002123
     5 x      -0.012394  0.022533 -0.129667  0.047976  0.269273 -0.024598
     5 y      -0.088923  0.128847  0.330222 -0.006413 -0.023842 -0.273505
     5 z       0.140508 -0.085901 -0.024453  0.270318 -0.048356 -0.002123
     6 x      -0.060982 -0.043283 -0.049918  0.047976  0.269273 -0.024598
     6 y       0.095664  0.203967 -0.282935 -0.006413 -0.023842 -0.273505
     6 z      -0.111435 -0.086983 -0.019399  0.270318 -0.048356 -0.002123
     7 x      -0.087810  0.061154 -0.060476  0.047976  0.269273 -0.024598
     7 y      -0.097575  0.205308  0.281517 -0.006413 -0.023842 -0.273505
     7 z       0.089758 -0.071769  0.003316  0.270318 -0.048356 -0.002123
     8 x       0.001240 -0.019979  0.054990  0.047976  0.269273 -0.024598
     8 y       0.034186 -0.044643 -0.155473 -0.006413 -0.023842 -0.273505
     8 z      -0.044974  0.060180  0.007284  0.270318 -0.048356 -0.002123
     9 x      -0.005938  0.019854 -0.110923  0.047976  0.269273 -0.024598
     9 y      -0.000076  0.123972 -0.001425 -0.006413 -0.023842 -0.273505
     9 z      -0.000865 -0.147211 -0.016159  0.270318 -0.048356 -0.002123
    10 x       0.073733 -0.036889  0.183135  0.047976  0.269273 -0.024598
    10 y       0.000947 -0.343538  0.002352 -0.006413 -0.023842 -0.273505
    10 z       0.010742  0.283499  0.026679  0.270318 -0.048356 -0.002123
    11 x       0.100509 -0.010775  0.161365  0.047976  0.269273 -0.024598
    11 y       0.001291 -0.337570  0.002073 -0.006413 -0.023842 -0.273505
    11 z       0.014642  0.103724  0.023508  0.270318 -0.048356 -0.002123
    12 x      -0.010782  0.003097  0.050856  0.047976  0.269273 -0.024598
    12 y      -0.034309 -0.044347  0.156832 -0.006413 -0.023842 -0.273505
    12 z       0.043585  0.063542  0.008135  0.270318 -0.048356 -0.002123


  Frequency     117.4011  120.6353  144.1609  147.2667  147.8528  152.6501
  IR Intensity    0.0173    0.0146    0.0000    0.0000    0.0010    0.0002
     in X         0.0002    0.0143    0.0000    0.0000    0.0000    0.0000
     in Y         0.0095    0.0000    0.0000    0.0000    0.0008    0.0001
     in Z         0.0077    0.0003    0.0000    0.0000    0.0002    0.0001
  Raman Intsty    0.0006    0.0000    0.1056    0.0000    0.0007    0.0286

     1 x      -0.026791  0.210629  0.011345 -0.035203 -0.001255 -0.002231
     1 y       0.101451  0.002705  0.004675 -0.000452  0.025390  0.027911
     1 z       0.174960  0.030685 -0.078288 -0.005128  0.006378  0.012852
     2 x      -0.148334 -0.101307 -0.121856  0.012120 -0.012859  0.031727
     2 y      -0.097158  0.085337  0.001994 -0.029849  0.032249 -0.012297
     2 z      -0.122169  0.141899  0.024599 -0.005340 -0.007065 -0.015667
     3 x       0.179415 -0.054440  0.109686  0.009339  0.013524 -0.025620
     3 y      -0.092949 -0.087338  0.004967  0.030125  0.032588 -0.013033
     3 z      -0.074422 -0.164588  0.058331  0.008466 -0.003221 -0.024022
     4 x      -0.185967 -0.238339 -0.111559  0.183055 -0.254973  0.120378
     4 y      -0.091539  0.155120  0.038058 -0.222695  0.264072 -0.032178
     4 z      -0.143476  0.240499  0.098803 -0.220798  0.167597  0.084696
     5 x       0.221409 -0.155852  0.077746  0.106806  0.189843 -0.138689
     5 y      -0.086308 -0.160182  0.040490  0.226421  0.269782 -0.035506
     5 z      -0.084129 -0.297925  0.126381  0.263028  0.232395  0.046955
     6 x      -0.299216 -0.297212 -0.451589 -0.242769  0.247915  0.164031
     6 y      -0.064516  0.103379 -0.026996 -0.047042  0.044157 -0.010674
     6 z      -0.108506  0.223462 -0.008339  0.151326 -0.038586 -0.320463
     7 x       0.319259 -0.218420  0.435734 -0.190621 -0.227633 -0.065476
     7 y      -0.056573 -0.110002 -0.015600  0.041476  0.038049 -0.013622
     7 z      -0.018405 -0.298580  0.120927 -0.214464 -0.107862 -0.353898
     8 x      -0.148633  0.186811 -0.070119  0.222935 -0.140856 -0.167703
     8 y       0.034465  0.104991 -0.156676  0.446810 -0.228667 -0.353807
     8 z      -0.032535  0.179470  0.051114 -0.038795  0.013766  0.008080
     9 x       0.043056 -0.092645 -0.009123  0.018677  0.042692 -0.037248
     9 y      -0.141636 -0.001190  0.274998  0.000236 -0.466480  0.471532
     9 z      -0.283064 -0.013497  0.038379  0.002719 -0.251927  0.214112
    10 x      -0.038216  0.225657 -0.005049 -0.053468 -0.017861 -0.011337
    10 y       0.182846  0.002898  0.204134 -0.000685  0.266889  0.200385
    10 z       0.246205  0.032874  0.016665 -0.007789  0.099080  0.060160
    11 x      -0.067628  0.291777  0.078402 -0.242008  0.024798 -0.035847
    11 y       0.290598  0.003747 -0.217224 -0.003108 -0.070224  0.120299
    11 z       0.438597  0.042506 -0.519028 -0.035257 -0.164018  0.235458
    12 x       0.150823  0.232824  0.056541  0.213770  0.136777  0.167272
    12 y       0.038310 -0.099602 -0.155050 -0.441205 -0.225095 -0.349505
    12 z       0.011090 -0.118337  0.069566  0.102416  0.054211  0.056880


  Frequency     156.8506  159.0904  160.9491  168.8440  169.8553  180.4789
  IR Intensity    0.0000    0.0000    0.0000    0.0010    0.0023    0.0000
     in X         0.0000    0.0000    0.0000    0.0000    0.0023    0.0000
     in Y         0.0000    0.0000    0.0000    0.0001    0.0000    0.0000
     in Z         0.0000    0.0000    0.0000    0.0009    0.0000    0.0000
  Raman Intsty    0.0000    0.0588    0.0000    0.0142    0.0000    0.0000

     1 x       0.003686  0.018823  0.006206 -0.007578  0.005881  0.199694
     1 y       0.000047  0.028614  0.000080 -0.013081  0.000076  0.002565
     1 z       0.000537 -0.131729  0.000904  0.053167  0.000857  0.029092
     2 x      -0.027011 -0.040001 -0.015590  0.038584  0.004629 -0.099929
     2 y      -0.048906 -0.026859  0.011290  0.017790 -0.063028 -0.095399
     2 z       0.013064  0.024401 -0.003651 -0.027091  0.023792 -0.164057
     3 x      -0.023383  0.032040 -0.015694 -0.029687  0.009637 -0.144942
     3 y       0.048259 -0.025934 -0.011691  0.016913  0.063212  0.092254
     3 z      -0.020406  0.034896 -0.000906 -0.037037 -0.021714  0.128384
     4 x      -0.398085 -0.222144 -0.095667  0.374688 -0.126085  0.054415
     4 y       0.121131  0.232186 -0.059174 -0.086216  0.031378 -0.015157
     4 z      -0.206943  0.280285 -0.277566  0.409409  0.145375  0.415736
     5 x      -0.437400  0.127046 -0.172328 -0.473617 -0.078545  0.170348
     5 y      -0.131862  0.236670  0.055732 -0.097110 -0.034006  0.018043
     5 z       0.085227  0.331156  0.238524  0.285827 -0.175186 -0.382991
     6 x       0.368987 -0.126260  0.153095 -0.119759  0.068889  0.214633
     6 y       0.013997 -0.055339  0.052606  0.019046 -0.048907 -0.041228
     6 z       0.045753 -0.158731  0.334776 -0.255156 -0.445847  0.282338
     7 x       0.366938  0.167644  0.243505  0.187050 -0.062409  0.285148
     7 y      -0.004546 -0.051565 -0.047512  0.022986  0.048991  0.047647
     7 z       0.061459 -0.115915 -0.276999 -0.210459  0.446791 -0.209529
     8 x       0.119965  0.031035 -0.033661  0.048132  0.225054 -0.008718
     8 y       0.186266 -0.001605 -0.022387  0.159072  0.245193  0.080676
     8 z      -0.040557 -0.061904  0.046954 -0.014738  0.039741  0.035010
     9 x      -0.100448 -0.004515 -0.025968  0.038127 -0.044524  0.024420
     9 y      -0.001290  0.055761 -0.000333 -0.253123 -0.000572  0.000314
     9 z      -0.014634  0.026073 -0.003783 -0.239401 -0.006486  0.003557
    10 x       0.304349  0.060908 -0.521440 -0.017328 -0.467457 -0.324957
    10 y       0.003909 -0.541763 -0.006697  0.083474 -0.006004 -0.004174
    10 z       0.044338 -0.370328 -0.075964  0.111586 -0.068100 -0.047340
    11 x      -0.276702 -0.034623  0.501769  0.007047  0.227938 -0.365121
    11 y      -0.003554  0.156624  0.006444 -0.031761  0.002927 -0.004689
    11 z      -0.040311  0.223854  0.073099 -0.045569  0.033206 -0.053191
    12 x       0.108055 -0.012036 -0.019420 -0.045912  0.233131  0.003664
    12 y      -0.183337 -0.002158  0.021705  0.157864 -0.239309 -0.080741
    12 z       0.073776 -0.068179 -0.054687 -0.028438  0.027009 -0.035747


  Frequency     185.5798  204.2103  213.6702  225.1575  226.1776  256.8437
  IR Intensity    0.0034    0.0260    0.0279    0.0016    0.0074    0.0032
     in X         0.0001    0.0254    0.0006    0.0016    0.0000    0.0001
     in Y         0.0000    0.0000    0.0001    0.0000    0.0063    0.0002
     in Z         0.0034    0.0005    0.0272    0.0000    0.0011    0.0030
  Raman Intsty    0.0006    0.0000    0.0000    0.0000    0.0269    0.3257

     1 x       0.011970  0.189236 -0.005016 -0.038231  0.022156 -0.002112
     1 y       0.041210  0.002430 -0.056078 -0.000492 -0.249712 -0.029730
     1 z      -0.085801  0.027568  0.039379 -0.005570 -0.130068  0.017116
     2 x       0.006066  0.096521 -0.078354  0.145946  0.113105  0.034916
     2 y       0.085384 -0.008426 -0.114278 -0.095095 -0.017554 -0.013603
     2 z      -0.057174  0.023354 -0.114225 -0.079938 -0.070463 -0.044046
     3 x       0.008350  0.098929  0.110530  0.114639 -0.087828 -0.020547
     3 y       0.085413  0.010937 -0.111853  0.098441 -0.020135 -0.014315
     3 z      -0.056841  0.005119 -0.086708  0.117899 -0.099736 -0.052126
     4 x       0.250182 -0.077396 -0.172849 -0.074758  0.042231  0.085441
     4 y      -0.017047  0.096773 -0.107397  0.377420  0.227580  0.177472
     4 z       0.065057 -0.187935  0.234989 -0.016558  0.047906 -0.001126
     5 x      -0.257834 -0.125332  0.101277 -0.066859 -0.059850 -0.086004
     5 y      -0.023572 -0.099376 -0.103875 -0.379236  0.226272  0.175270
     5 z      -0.008951  0.158401  0.274925 -0.004072  0.033034 -0.026102
     6 x      -0.082615 -0.130335  0.223386 -0.151688 -0.104365 -0.054892
     6 y       0.113391 -0.005216 -0.140856 -0.403050 -0.138037 -0.113355
     6 z       0.387518 -0.027814  0.142357  0.106910  0.147077  0.035205
     7 x      -0.034241 -0.132942 -0.251097 -0.124974  0.061512  0.045401
     7 y       0.114013  0.001834 -0.146951  0.399495 -0.135910 -0.112067
     7 z       0.394566 -0.010540  0.073234 -0.147213  0.171243  0.049816
     8 x      -0.247678  0.257320 -0.054231 -0.007902  0.285714 -0.308672
     8 y      -0.255817 -0.311449  0.212813  0.023084 -0.052223  0.124832
     8 z      -0.121622  0.306108 -0.177603 -0.271109 -0.116630 -0.392248
     9 x       0.048164  0.140545  0.040233  0.270708  0.003104 -0.069964
     9 y       0.031708  0.001805  0.489949  0.003478  0.070068 -0.169700
     9 z      -0.333406  0.020475 -0.319367  0.039436 -0.027495  0.495212
    10 x       0.029054 -0.286127 -0.029023 -0.086914  0.012373 -0.034533
    10 y      -0.147730 -0.003675  0.004088 -0.001114  0.455779 -0.049719
    10 z      -0.186409 -0.041684  0.198865 -0.012662 -0.125111  0.241427
    11 x      -0.014908 -0.430171  0.012667  0.061751 -0.058078  0.004118
    11 y       0.181480 -0.005525 -0.086239  0.000792 -0.252086 -0.098029
    11 z       0.086333 -0.062668 -0.079351  0.008998  0.420882 -0.019625
    12 x       0.278432  0.326032  0.097272 -0.084330 -0.239164  0.404499
    12 y      -0.249061  0.318941  0.214759 -0.024268 -0.058964  0.133991
    12 z      -0.044977 -0.221124 -0.155533  0.257671 -0.193097 -0.288352


  Frequency     289.6915  306.5312  307.9906  333.7449  359.1952  364.5923
  IR Intensity    0.0077    0.3387    0.3458    0.0182    0.0161    0.0375
     in X         0.0001    0.0058    0.3386    0.0179    0.0157    0.0005
     in Y         0.0025    0.0873    0.0001    0.0000    0.0000    0.0161
     in Z         0.0050    0.2456    0.0072    0.0004    0.0003    0.0209
  Raman Intsty    4.8926    0.1275    0.0000    0.0000    0.0000    0.0005

     1 x      -0.022271  0.030800  0.249957  0.063477 -0.054223  0.041208
     1 y       0.183385 -0.267418  0.003212  0.000815 -0.000695  0.409632
     1 z       0.136706 -0.187832  0.036415  0.009248 -0.007899 -0.318969
     2 x       0.130162  0.095719  0.313835  0.071032  0.109094 -0.003828
     2 y      -0.052261 -0.044761 -0.109318  0.023103  0.483366 -0.283541
     2 z       0.000193 -0.278810  0.015121 -0.026558 -0.067382  0.072827
     3 x      -0.123453 -0.011046  0.302255  0.061062  0.097458 -0.009977
     3 y      -0.055518 -0.046131  0.117232 -0.021406 -0.480713 -0.283619
     3 z      -0.036754 -0.294364  0.074636  0.045802  0.097473  0.071931
     4 x       0.178811 -0.080355 -0.228553 -0.163169 -0.191805  0.033844
     4 y       0.324372 -0.046792 -0.149019 -0.121634 -0.305280  0.075769
     4 z      -0.123635  0.134927  0.061238 -0.005362  0.099749 -0.027588
     5 x      -0.144210  0.039673 -0.205260 -0.160924 -0.162995 -0.026463
     5 y       0.320223 -0.045248  0.143448  0.117473  0.300724  0.074995
     5 z      -0.170693  0.152411 -0.124438 -0.041853 -0.151437 -0.036374
     6 x      -0.005531 -0.032989 -0.137748 -0.014975  0.020417 -0.024078
     6 y      -0.373688  0.125364  0.348522 -0.066661 -0.269026  0.301526
     6 z       0.008740  0.104547 -0.003218 -0.054610  0.024793 -0.000953
     7 x       0.012204 -0.001371 -0.124133 -0.031603  0.019869  0.015758
     7 y      -0.373461  0.125766 -0.351888  0.066061  0.269542  0.302037
     7 z       0.011324  0.109153 -0.034934  0.047824 -0.018925  0.004850
     8 x       0.081133  0.207355 -0.065842 -0.331062  0.120192  0.130497
     8 y      -0.055185 -0.092245 -0.026295  0.197537 -0.098886 -0.076050
     8 z       0.142967  0.015272 -0.337182  0.322091 -0.098931 -0.079192
     9 x       0.029754 -0.036888  0.115048  0.606435 -0.036767  0.009945
     9 y       0.115341 -0.060133  0.001478  0.007788 -0.000472  0.050086
     9 z      -0.214409  0.258517  0.016759  0.088346 -0.005357 -0.072677
    10 x      -0.039792 -0.048119 -0.129937  0.066279 -0.009754 -0.055875
    10 y      -0.200489 -0.022737 -0.001669  0.000851 -0.000126 -0.175815
    10 z       0.290819  0.332300 -0.018932  0.009655 -0.001421  0.399041
    11 x       0.023306  0.015801 -0.095661  0.016317 -0.025128 -0.015754
    11 y       0.210523  0.540486 -0.001232  0.000209 -0.000323 -0.285815
    11 z      -0.178535 -0.156113 -0.013935  0.002377 -0.003661  0.133338
    12 x      -0.117130 -0.200710 -0.159928 -0.220349  0.084450 -0.100530
    12 y      -0.057731 -0.097486  0.023396 -0.204619  0.101514 -0.079017
    12 z       0.114084 -0.044172  0.304291 -0.402421  0.128744 -0.112848


  Frequency     403.1631  428.6818  429.2599  437.2026  439.3570  487.6605
  IR Intensity    0.7877    0.4012    0.4914    0.0733    0.2622    0.0001
     in X         0.0001    0.3928    0.0070    0.0717    0.0044    0.0000
     in Y         0.7642    0.0001    0.1196    0.0000    0.0735    0.0000
     in Z         0.0233    0.0083    0.3648    0.0015    0.1844    0.0001
  Raman Intsty    0.0000    0.0000    0.0020    0.0000    0.0002    0.0436

     1 x      -0.032796  0.498385  0.013901 -0.394444 -0.077672  0.071784
     1 y      -0.232191  0.006393  0.344765 -0.005065  0.253751 -0.255183
     1 z       0.245596  0.072605 -0.125749 -0.057461  0.510820 -0.470252
     2 x      -0.200927  0.207325 -0.168074  0.379141 -0.310108 -0.495135
     2 y      -0.441827  0.086091  0.071229 -0.130472  0.077104  0.119263
     2 z      -0.092022  0.176625 -0.455408 -0.351262 -0.051344  0.168925
     3 x       0.229873  0.251177  0.289163  0.259782  0.309829  0.423211
     3 y      -0.436296 -0.080206  0.077098  0.138676  0.085063  0.131057
     3 z      -0.029263 -0.109814 -0.388803  0.444340  0.038965  0.302712
     4 x       0.146601  0.059572  0.045927 -0.052985  0.039482  0.125954
     4 y       0.231924  0.075702 -0.008404  0.008208 -0.025579  0.057933
     4 z      -0.035206 -0.068730  0.076572  0.067928  0.024387 -0.052033
     5 x      -0.136252  0.039378 -0.065633 -0.031183 -0.044141 -0.107293
     5 y       0.228292 -0.074430 -0.009840 -0.009289 -0.026653  0.054938
     5 z      -0.076412  0.083142  0.060323 -0.080190  0.012206 -0.086013
     6 x       0.042435 -0.006602  0.043353 -0.051208  0.039575  0.082807
     6 y       0.190133 -0.171292 -0.114549  0.026919  0.001360 -0.111638
     6 z       0.014322 -0.036528  0.081729  0.054742  0.023852 -0.022126
     7 x      -0.049525 -0.021050 -0.061971 -0.032771 -0.044756 -0.070220
     7 y       0.188952  0.170941 -0.115895 -0.027996  0.000279 -0.113603
     7 z       0.000926  0.032496  0.066386 -0.066976  0.011568 -0.044420
     8 x      -0.083939 -0.278616 -0.062811  0.001876  0.316606  0.027079
     8 y       0.105878  0.119944  0.028654  0.027358 -0.188138  0.016980
     8 z       0.116462  0.083258  0.288193  0.233734 -0.277438  0.015022
     9 x      -0.006866 -0.524769 -0.030021 -0.346180 -0.013793  0.004419
     9 y       0.052856 -0.006738 -0.075725 -0.004446 -0.048334 -0.034649
     9 z       0.042476 -0.076454  0.212681 -0.050431  0.098934 -0.027281
    10 x       0.035978 -0.076863  0.007959  0.084415  0.007204 -0.024374
    10 y       0.110714 -0.000986 -0.045713  0.001084 -0.037915 -0.000649
    10 z      -0.256727 -0.011196 -0.050616  0.012297 -0.046116  0.167367
    11 x       0.011616 -0.091134 -0.014902  0.067547  0.012188 -0.007550
    11 y       0.106815 -0.001166 -0.275279  0.000867  0.024383  0.120244
    11 z      -0.089154 -0.013278  0.126549  0.009840 -0.085818  0.041223
    12 x       0.044539 -0.240178 -0.022759  0.069159 -0.219476 -0.030657
    12 y       0.107528 -0.126606  0.029164 -0.026447 -0.195024  0.016238
    12 z       0.135180 -0.158844  0.294023 -0.223388 -0.355535  0.006611




--------------------------------------------------------------------------------
  Vibrational properties (for cluster):  Temperature  =       0.000 K
--------------------------------------------------------------------------------
  Zero point energy            =        0.478876 eV
--------------------------------------------------------------------------------

  Phonon density of states : 

--------------------------------------------------------------------------------
 Frequency (cm-1) Density of States                                             
--------------------------------------------------------------------------------
    0.00000 |********************                                          0.032
    7.61970 |                                                              0.000
   15.23939 |                                                              0.000
   22.85909 |                                                              0.000
   30.47879 |                                                              0.000
   38.09848 |                                                              0.000
   45.71818 |                                                              0.000
   53.33788 |                                                              0.000
   60.95757 |                                                              0.000
   68.57727 |                                                              0.000
   76.19697 |                                                              0.000
   83.81666 |                                                              0.000
   91.43636 |                                                              0.000
   99.05606 |                                                              0.000
  106.67575 |                                                              0.000
  114.29545 |****************************************                      0.065
  121.91515 |                                                              0.000
  129.53484 |                                                              0.000
  137.15454 |********************                                          0.032
  144.77424 |****************************************                      0.065
  152.39393 |************************************************************  0.097
  160.01363 |********************                                          0.032
  167.63333 |****************************************                      0.065
  175.25302 |********************                                          0.032
  182.87272 |********************                                          0.032
  190.49242 |                                                              0.000
  198.11211 |********************                                          0.032
  205.73181 |                                                              0.000
  213.35151 |********************                                          0.032
  220.97120 |****************************************                      0.065
  228.59090 |                                                              0.000
  236.21060 |                                                              0.000
  243.83029 |                                                              0.000
  251.44999 |********************                                          0.032
  259.06969 |                                                              0.000
  266.68938 |                                                              0.000
  274.30908 |                                                              0.000
  281.92877 |                                                              0.000
  289.54847 |********************                                          0.032
  297.16817 |                                                              0.000
  304.78786 |****************************************                      0.065
  312.40756 |                                                              0.000
  320.02726 |                                                              0.000
  327.64695 |********************                                          0.032
  335.26665 |                                                              0.000
  342.88635 |                                                              0.000
  350.50604 |                                                              0.000
  358.12574 |****************************************                      0.065
  365.74544 |                                                              0.000
  373.36513 |                                                              0.000
  380.98483 |                                                              0.000
  388.60453 |                                                              0.000
  396.22422 |********************                                          0.032
  403.84392 |                                                              0.000
  411.46362 |                                                              0.000
  419.08331 |                                                              0.000
  426.70301 |****************************************                      0.065
  434.32271 |****************************************                      0.065
  441.94240 |                                                              0.000
  449.56210 |                                                              0.000
  457.18180 |                                                              0.000
  464.80149 |                                                              0.000
  472.42119 |                                                              0.000
  480.04089 |********************                                          0.032
--------------------------------------------------------------------------------



  XYZ File written as 002/4/sp_mod_-20/sp_mod_-20_eig.xyz


  Time to end of properties =       0.0123 seconds


  Peak dynamic memory used =       0.64 MB 


  Timing analysis for GULP :

--------------------------------------------------------------------------------
  Task / Subroutine                                          Time (Seconds)
--------------------------------------------------------------------------------
  Calculation of phonons                                          0.0037
--------------------------------------------------------------------------------
  Total CPU time                                                  0.0123
--------------------------------------------------------------------------------


  Job Finished at 10:30.31 17th May        2022                               

