------------------------------------------------------------
          Invoking FHI-aims ...

          When using FHI-aims, please cite the following reference:

            Volker Blum, Ralf Gehrke, Felix Hanke, Paula Havu,
            Ville Havu, Xinguo Ren, Karsten Reuter, and Matthias Scheffler,
            'Ab Initio Molecular Simulations with Numeric Atom-Centered Orbitals',
            Computer Physics Communications 180, 2175-2196 (2009)

          In addition, many other developments in FHI-aims are likely important for
          your particular application. A partial list of references is given at the end of
          this file. Thank you for giving credit to the authors of these developments.

          For any questions about FHI-aims, please visit our slack channel at

            https://fhi-aims.slack.com

          and our main development and support site at

            https://aims-git.rz-berlin.mpg.de .

          The latter site, in particular, has a wiki to collect information, as well
          as an issue tracker to log discussions, suggest improvements, and report issues
          or bugs. https://aims-git.rz-berlin.mpg.de is also the main development site
          of the project and all new and updated code versions can be obtained there.
          Please send an email to aims-coordinators@fhi-berlin.mpg.de and we will add
          you to these sites. They are for you and everyone is welcome there.

------------------------------------------------------------



  Date     :  20220517, Time     :  114251.513
  Time zero on CPU 1             :   0.437410000000000E-01  s.
  Internal wall clock time zero  :           422019771.513  s.

  FHI-aims created a unique identifier for this run for later identification
  aims_uuid : 86D3DEDB-B74E-4565-A8A3-0897392908DF

  Build configuration of the current instance of FHI-aims
  -------------------------------------------------------
  FHI-aims version      : 210914
  Commit number         : GITDIR-NOTFOUND
  CMake host system     : Linux-3.10.0-693.17.1.el7.x86_64
  CMake version         : 3.21.1
  Fortran compiler      : /shared/ucl/apps/intel/2018.Update3/impi/2018.3.222/intel64/bin/mpiifort (Intel) version 18.0.3.20180410
  Fortran compiler flags: -O3 -ip -fp-model precise
  C compiler            : /shared/ucl/apps/intel/2018.Update3/compilers_and_libraries_2018.3.222/linux/bin/intel64/icc (Intel) version 18.0.3.20180410
  C compiler flags      : -O3 -ip -fp-model precise -std=gnu99
  ELPA2 kernel          : AVX2
  Using MPI
  Using ScaLAPACK
  Using LibXC
  Using i-PI
  Using RLSY
  Linking against: /shared/ucl/apps/intel/2019.Update5/compilers_and_libraries_2019.5.281/linux/mkl/lib/intel64/libmkl_intel_lp64.so
                   /shared/ucl/apps/intel/2019.Update5/compilers_and_libraries_2019.5.281/linux/mkl/lib/intel64/libmkl_sequential.so
                   /shared/ucl/apps/intel/2019.Update5/compilers_and_libraries_2019.5.281/linux/mkl/lib/intel64/libmkl_core.so
                   /shared/ucl/apps/intel/2019.Update5/compilers_and_libraries_2019.5.281/linux/mkl/lib/intel64/libmkl_blacs_intelmpi_lp64.so
                   /shared/ucl/apps/intel/2019.Update5/compilers_and_libraries_2019.5.281/linux/mkl/lib/intel64/libmkl_scalapack_lp64.so

  Using       24 parallel tasks.
  Task        0 on host node-k98e-003 reporting.
  Task        1 on host node-k98e-003 reporting.
  Task        2 on host node-k98e-003 reporting.
  Task        3 on host node-k98e-003 reporting.
  Task        4 on host node-k98e-003 reporting.
  Task        5 on host node-k98e-003 reporting.
  Task        6 on host node-k98e-003 reporting.
  Task        7 on host node-k98e-003 reporting.
  Task        8 on host node-k98e-003 reporting.
  Task        9 on host node-k98e-003 reporting.
  Task       10 on host node-k98e-003 reporting.
  Task       11 on host node-k98e-003 reporting.
  Task       12 on host node-k98e-003 reporting.
  Task       13 on host node-k98e-003 reporting.
  Task       14 on host node-k98e-003 reporting.
  Task       15 on host node-k98e-003 reporting.
  Task       16 on host node-k98e-003 reporting.
  Task       17 on host node-k98e-003 reporting.
  Task       18 on host node-k98e-003 reporting.
  Task       19 on host node-k98e-003 reporting.
  Task       20 on host node-k98e-003 reporting.
  Task       21 on host node-k98e-003 reporting.
  Task       22 on host node-k98e-003 reporting.
  Task       23 on host node-k98e-003 reporting.

  Performing system and environment tests:
  | Environment variable OMP_NUM_THREADS correctly set to 1.
  | Checking for ScaLAPACK...
  | Testing pdtran()...
  | All pdtran() tests passed.

  Obtaining array dimensions for all initial allocations:
  
  -----------------------------------------------------------------------
  Parsing control.in (first pass over file, find array dimensions only).
  The contents of control.in will be repeated verbatim below
  unless switched off by setting 'verbatim_writeout .false.' .
  in the first line of control.in .
  -----------------------------------------------------------------------
  
  #########################################################################################  Physical model
  #########################################################################################
  xc                 pbesol
  spin               none
  relativistic       atomic_zora scalar
  charge             0.0
  #  SCF convergence
  occupation_type    gaussian 0.01
  mixer              pulay
  n_max_pulay        10
  charge_mix_param   0.5
  sc_accuracy_rho    1E-5
  sc_accuracy_eev    1E-3
  sc_accuracy_etot   1E-6
  sc_accuracy_forces 1E-4
  sc_iter_limit      1500
  #  Relaxation
  #relax_geometry   bfgs 1.e-3
  
  ################################################################################
  #
  #  FHI-aims code project
  #  VB, Fritz-Haber Institut, 2009
  #
  #  Suggested "light" defaults for Al atom (to be pasted into control.in file)
  #  Be sure to double-check any results obtained with these settings for post-processing,
  #  e.g., with the "tight" defaults and larger basis sets.
  #
  ################################################################################
    species        Al
  #     global species definitions
      nucleus             13
      mass                26.9815386
  #
      l_hartree           4
  #
      cut_pot             3.5          1.5  1.0
      basis_dep_cutoff    1e-4
  #
      radial_base         41 5.0
      radial_multiplier   1
      angular_grids       specified
        division   0.6594  110
        division   0.8170  194
        division   0.9059  302
  #      division   1.0363  434
  #      division   1.1443  590
  #      division   1.2621  770
  #      division   2.8177  974
  #      outer_grid   974
        outer_grid   302
  ################################################################################
  #
  #  Definition of "minimal" basis
  #
  ################################################################################
  #     valence basis states
      valence      3  s   2.
      valence      3  p   1.
  #     ion occupancy
      ion_occ      3  s   1.
      ion_occ      2  p   6.
  ################################################################################
  #
  #  Suggested additional basis functions. For production calculations,
  #  uncomment them one after another (the most important basis functions are
  #  listed first).
  #
  #  Constructed for dimers: 2.0 A, 2.5 A, 3.0 A, 3.75 A, 4.5 A
  #
  ################################################################################
  #  "First tier" - improvements: -199.47 meV to -10.63 meV
       ionic 3 d auto
       ionic 3 p auto
  #     hydro 4 f 4.7
       ionic 3 s auto
  #  "Second tier" - improvements: -5.35 meV to -1.57 meV
  #     hydro 5 g 7
  #     hydro 3 d 6
  #     hydro 2 s 11.6
  #     hydro 2 p 0.9
  #  "Third tier" - improvements: -0.63 meV to -0.20 meV
  #     hydro 5 f 7.6
  #     hydro 4 p 7.2
  #     hydro 4 s 3.7
  #     hydro 4 d 7.6
  #  "Fourth tier" - improvements: -0.17 meV to -0.08 meV
  #     hydro 4 d 13.6
  #     hydro 5 g 11.2
  #     hydro 4 d 0.9
  #     hydro 1 s 0.4
  #     hydro 4 p 0.1
  #     hydro 5 f 9.8
  #  Further basis functions that fell out of the optimization - noise level...
  #     hydro 4 p 5
  
  ################################################################################
  #
  #  FHI-aims code project
  #  VB, Fritz-Haber Institut, 2009
  #
  #  Suggested "light" defaults for F atom (to be pasted into control.in file)
  #  Be sure to double-check any results obtained with these settings for post-processing,
  #  e.g., with the "tight" defaults and larger basis sets.
  #
  ################################################################################
    species        F
  #     global species definitions
      nucleus             9
      mass                18.9984032
  #
      l_hartree           4
  #
      cut_pot             3.5  1.5  1.0
      basis_dep_cutoff    1e-4
  #
      radial_base         37 5.0
      radial_multiplier   1
      angular_grids specified
        division   0.4014  110
        division   0.5291  194
        division   0.6019  302
  #      division   0.6814  434
  #      division   0.7989  590
  #      division   0.8965  770
  #      division   1.3427  974
  #      outer_grid   974
        outer_grid   302
  ################################################################################
  #
  #  Definition of "minimal" basis
  #
  ################################################################################
  #     valence basis states
      valence      2  s   2.
      valence      2  p   5.
  #     ion occupancy
      ion_occ      2  s   1.
      ion_occ      2  p   4.
  ################################################################################
  #
  #  Suggested additional basis functions. For production calculations,
  #  uncomment them one after another (the most important basis functions are
  #  listed first).
  #
  #  Constructed for dimers: 1.2 A, 1.418 A, 1.75 A, 2.25 A, 3.25 A
  #
  ################################################################################
  #  "First tier" - improvements: -149.44 meV to -45.88 meV
       hydro 2 p 1.7
       hydro 3 d 7.4
       hydro 3 s 6.8
  #  "Second tier" - improvements: -12.96 meV to -1.56 meV
  #     hydro 4 f 11.2
  #     ionic 2 p auto
  #     hydro 1 s 0.75
  #     hydro 4 d 8.8
  #     hydro 5 g 16.8
  #  "Third tier" - improvements: -0.58 meV to -0.05 meV
  #     hydro 3 p 6.2
  #     hydro 3 s 3.2
  #     hydro 4 f 9.6
  #     hydro 3 s 19.6
  #     hydro 4 d 8.6
  #     hydro 5 g 14.4
  # Further basis functions: -0.05 meV and below
  #     hydro 3 p 4.2
  
  -----------------------------------------------------------------------
  Completed first pass over input file control.in .
  -----------------------------------------------------------------------
  
  
  -----------------------------------------------------------------------
  Parsing geometry.in (first pass over file, find array dimensions only).
  The contents of geometry.in will be repeated verbatim below
  unless switched off by setting 'verbatim_writeout .false.' .
  in the first line of geometry.in .
  -----------------------------------------------------------------------
  
  atom 0.515897595 -0.442680678 1.690073717 Al
  atom 2.285857763 -1.945020654 -0.609551890 Al
  atom -0.993189782 -1.828878540 -0.851186536 Al
  atom 3.453124311 -0.727129193 -1.346237603 F
  atom -1.906679251 -0.578506289 -1.802691421 F
  atom 2.593479787 -3.711293677 -0.464446192 F
  atom -1.406231573 -3.600385585 -0.805070669 F
  atom 1.963371996 -1.400228932 1.135404600 F
  atom 0.734850164 -1.630708882 -1.495418465 F
  atom 0.319294951 -0.907866241 3.455813881 F
  atom 0.602675179 1.225285966 1.030035072 F
  atom -0.920803869 -1.320253321 0.889782012 F
  
  -----------------------------------------------------------------------
  Completed first pass over input file geometry.in .
  -----------------------------------------------------------------------
  

  Basic array size parameters:
  | Number of species                 :        2
  | Number of atoms                   :       12
  | Max. basis fn. angular momentum   :        2
  | Max. atomic/ionic basis occupied n:        3
  | Max. number of basis fn. types    :        3
  | Max. radial fns per species/type  :        5
  | Max. logarithmic grid size        :     1340
  | Max. radial integration grid size :       41
  | Max. angular integration grid size:      302
  | Max. angular grid division number :        8
  | Radial grid for Hartree potential :     1340
  | Number of spin channels           :        1

------------------------------------------------------------
          Reading file control.in.
------------------------------------------------------------
  XC: Using PBEsol gradient-corrected functionals.
  Spin treatment: No spin polarisation.
  Scalar relativistic treatment of kinetic energy: on-site free-atom approximation to ZORA.
  Charge =   0.000000E+00: Neutral system requested explicitly.
  Occupation type: Gaussian broadening, width =   0.100000E-01 eV.
  Using pulay charge density mixing.
  Pulay mixing - number of memorized iterations:   10
  Charge density mixing - mixing parameter:     0.5000
  Convergence accuracy of self-consistent charge density:  0.1000E-04
  Convergence accuracy of sum of eigenvalues:  0.1000E-02
  Convergence accuracy of total energy:  0.1000E-05
  Convergence accuracy of forces:  0.1000E-03
  Maximum number of s.-c. iterations  :  1500
 
  Reading configuration options for species Al                  .
  | Found nuclear charge :  13.0000
  | Found atomic mass :    26.9815386000000      amu
  | Found l_max for Hartree potential  :   4
  | Found cutoff potl. onset [A], width [A], scale factor :    3.50000    1.50000    1.00000
  | Threshold for basis-dependent cutoff potential is   0.100000E-03
  | Found data for basic radial integration grid :    41 points, outermost radius =    5.000 A
  | Found multiplier for basic radial grid :   1
  | Found angular grid specification: user-specified.
  | Specified grid contains     4 separate shells.
  | Check grid settings after all constraints further below.
  | Found free-atom valence shell :  3 s   2.000
  | Found free-atom valence shell :  3 p   1.000
  | Found free-ion valence shell :  3 s   1.000
  | Found free-ion valence shell :  2 p   6.000
  | Found ionic basis function :  3 d , default cutoff radius.
  | Found ionic basis function :  3 p , default cutoff radius.
  | Found ionic basis function :  3 s , default cutoff radius.
  Species Al                  : Missing cutoff potential type.
  Defaulting to exp(1/x)/(1-x)^2 type cutoff potential.
  Species Al: No 'logarithmic' tag. Using default grid for free atom:
  | Default logarithmic grid data [bohr] : 0.1000E-03 0.1000E+03 0.1012E+01
  | Will include ionic basis functions of  2.0-fold positive Al                   ion.
  Species Al: On-site basis accuracy parameter (for Gram-Schmidt orthonormalisation) not specified.
  Using default value basis_acc =  0.1000000E-03.
  Species Al                  : Using default innermost maximum threshold i_radial=  2 for radial functions.
  Species Al                  : Default cutoff onset for free atom density etc. : 0.35000000E+01 AA.
  Species Al                  : Basic radial grid will be enhanced according to radial_multiplier =   1, to contain    41 grid points.
 
  Reading configuration options for species F                   .
  | Found nuclear charge :   9.0000
  | Found atomic mass :    18.9984032000000      amu
  | Found l_max for Hartree potential  :   4
  | Found cutoff potl. onset [A], width [A], scale factor :    3.50000    1.50000    1.00000
  | Threshold for basis-dependent cutoff potential is   0.100000E-03
  | Found data for basic radial integration grid :    37 points, outermost radius =    5.000 A
  | Found multiplier for basic radial grid :   1
  | Found angular grid specification: user-specified.
  | Specified grid contains     4 separate shells.
  | Check grid settings after all constraints further below.
  | Found free-atom valence shell :  2 s   2.000
  | Found free-atom valence shell :  2 p   5.000
  | Found free-ion valence shell :  2 s   1.000
  | Found free-ion valence shell :  2 p   4.000
  | Found hydrogenic basis function :  2 p   1.700
  | Found hydrogenic basis function :  3 d   7.400
  | Found hydrogenic basis function :  3 s   6.800
  Species F                   : Missing cutoff potential type.
  Defaulting to exp(1/x)/(1-x)^2 type cutoff potential.
  Species F : No 'logarithmic' tag. Using default grid for free atom:
  | Default logarithmic grid data [bohr] : 0.1000E-03 0.1000E+03 0.1012E+01
  Species F : On-site basis accuracy parameter (for Gram-Schmidt orthonormalisation) not specified.
  Using default value basis_acc =  0.1000000E-03.
  Species F                   : Using default innermost maximum threshold i_radial=  2 for radial functions.
  Species F                   : Default cutoff onset for free atom density etc. : 0.35000000E+01 AA.
  Species F                   : Basic radial grid will be enhanced according to radial_multiplier =   1, to contain    37 grid points.
 
  Finished reading input file 'control.in'.
 
------------------------------------------------------------


------------------------------------------------------------
          Reading geometry description geometry.in.
------------------------------------------------------------
  | The smallest distance between any two atoms is         1.79591038 AA.
  | The first atom of this pair is atom number                      1 .
  | The second atom of this pair is atom number                    11 .
  Input structure read successfully.
  The structure contains       12 atoms,  and a total of        120.000 electrons.

  Input geometry:
  | No unit cell requested.
  | Atomic structure:
  |       Atom                x [A]            y [A]            z [A]
  |    1: Species Al            0.51589759       -0.44268068        1.69007372
  |    2: Species Al            2.28585776       -1.94502065       -0.60955189
  |    3: Species Al           -0.99318978       -1.82887854       -0.85118654
  |    4: Species F             3.45312431       -0.72712919       -1.34623760
  |    5: Species F            -1.90667925       -0.57850629       -1.80269142
  |    6: Species F             2.59347979       -3.71129368       -0.46444619
  |    7: Species F            -1.40623157       -3.60038559       -0.80507067
  |    8: Species F             1.96337200       -1.40022893        1.13540460
  |    9: Species F             0.73485016       -1.63070888       -1.49541846
  |   10: Species F             0.31929495       -0.90786624        3.45581388
  |   11: Species F             0.60267518        1.22528597        1.03003507
  |   12: Species F            -0.92080387       -1.32025332        0.88978201

 
  Finished reading input file 'control.in'.
 

------------------------------------------------------------
          Reading geometry description geometry.in.
------------------------------------------------------------
 
  Consistency checks for stacksize environment parameter are next.
 
  | Maximum stacksize for task 0: unlimited
  | Maximum stacksize for task 1: unlimited
  | Maximum stacksize for task 2: unlimited
  | Maximum stacksize for task 3: unlimited
  | Maximum stacksize for task 4: unlimited
  | Maximum stacksize for task 5: unlimited
  | Maximum stacksize for task 6: unlimited
  | Maximum stacksize for task 7: unlimited
  | Maximum stacksize for task 8: unlimited
  | Maximum stacksize for task 9: unlimited
  | Maximum stacksize for task 10: unlimited
  | Maximum stacksize for task 11: unlimited
  | Maximum stacksize for task 12: unlimited
  | Maximum stacksize for task 13: unlimited
  | Maximum stacksize for task 14: unlimited
  | Maximum stacksize for task 15: unlimited
  | Maximum stacksize for task 16: unlimited
  | Maximum stacksize for task 17: unlimited
  | Maximum stacksize for task 18: unlimited
  | Maximum stacksize for task 19: unlimited
  | Maximum stacksize for task 20: unlimited
  | Maximum stacksize for task 21: unlimited
  | Maximum stacksize for task 22: unlimited
  | Maximum stacksize for task 23: unlimited
  | Current stacksize for task 0: unlimited
  | Current stacksize for task 1: unlimited
  | Current stacksize for task 2: unlimited
  | Current stacksize for task 3: unlimited
  | Current stacksize for task 4: unlimited
  | Current stacksize for task 5: unlimited
  | Current stacksize for task 6: unlimited
  | Current stacksize for task 7: unlimited
  | Current stacksize for task 8: unlimited
  | Current stacksize for task 9: unlimited
  | Current stacksize for task 10: unlimited
  | Current stacksize for task 11: unlimited
  | Current stacksize for task 12: unlimited
  | Current stacksize for task 13: unlimited
  | Current stacksize for task 14: unlimited
  | Current stacksize for task 15: unlimited
  | Current stacksize for task 16: unlimited
  | Current stacksize for task 17: unlimited
  | Current stacksize for task 18: unlimited
  | Current stacksize for task 19: unlimited
  | Current stacksize for task 20: unlimited
  | Current stacksize for task 21: unlimited
  | Current stacksize for task 22: unlimited
  | Current stacksize for task 23: unlimited
 
  Consistency checks for the contents of control.in are next.
 
  MPI_IN_PLACE appears to work with this MPI implementation.
  | Keeping use_mpi_in_place .true. (see manual).
  Target number of points in a grid batch is not set. Defaulting to  100
  Method for grid partitioning is not set. Defaulting to parallel hash+maxmin partitioning.
  Batch size limit is not set. Defaulting to    200
  By default, will store active basis functions for each batch.
  If in need of memory, prune_basis_once .false. can be used to disable this option.
  communication_type for Hartree potential was not specified.
  Defaulting to calc_hartree .
  Pulay mixer: Number of initial linear mixing iterations not set.
  Defaulting to    0 iterations.
  Work space size for distributed Hartree potential not set.
  Defaulting to   0.200000E+03 MB.
  Algorithm-dependent basis array size parameters:
  | n_max_pulay                         :       10
  Presetting      1001 iterations before the initial mixing cycle
  is restarted anyway using the sc_init_iter criterion / keyword.
  Presetting a factor      1.000 between actual scf density residual
  and density convergence criterion sc_accuracy_rho below which sc_init_iter
  takes no effect.
  Geometry relaxation not requested: no relaxation will be performed.
  Forces evaluation will include force correction term due to incomplete self-consistency (default).
  Handling of forces: Unphysical translation and rotation will be removed from forces.
  No accuracy limit for integral partition fn. given. Defaulting to  0.1000E-14.
  No threshold value for u(r) in integrations given. Defaulting to  0.1000E-05.
  No accuracy for occupation numbers given. Defaulting to  0.1000E-12.
  No threshold value for occupation numbers given. Defaulting to  0.0000E+00.
  No accuracy for fermi level given. Defaulting to  0.1000E-19.
  Maximum # of iterations to find E_F not set. Defaulting to  200.
  Preferred method for the eigenvalue solver ('KS_method') not specified in 'control.in'.
  Calling BLACS routine to test compilation state
  Since ScaLAPACK support is enabled, defaulting to ELPA (via ELSI).
  Will not use alltoall communication since running on < 1024 CPUs.
  Threshold for basis singularities not set.
  Default threshold for basis singularities:  0.1000E-04
  partition_type (choice of integration weights) for integrals was not specified.
  | Using a version of the partition function of Stratmann and coworkers ('stratmann_sparse').
  | At each grid point, the set of atoms used to build the partition table is smoothly restricted to
  | only those atoms whose free-atom density would be non-zero at that grid point.
  Partitioning for Hartree potential was not defined. Using partition_type for integrals.
  | Adjusted default value of keyword multip_moments_threshold to:       0.10000000E-11
  | This value may affect high angular momentum components of the Hartree potential in periodic systems.
  No q(lm)/r^(l+1) cutoff set for long-range Hartree potential.
  | Using default value of  0.100000E-09 .
  | Verify using the multipole_threshold keyword.
  Defaulting to new monopole extrapolation.
  Density update method: automatic selection selected.
  Charge integration errors on the 3D integration grid will be compensated
  by explicit normalization and distribution of residual charges.
  Use the "compensate_multipole_errors" flag to change this behaviour.
  Set 'collect_eigenvectors' to be '.true.' for use_density_matrix .false.
 
  Consistency checks for the contents of geometry.in are next.
 
  Number of empty states per atom not set in control.in - providing a guess from actual geometry.
  | Total number of empty states used during s.c.f. cycle:       36
  If you use a very high smearing, use empty_states (per atom!) in control.in to increase this value.

  Structure-dependent array size parameters: 
  | Maximum number of distinct radial functions  :       14
  | Maximum number of basis functions            :      180
  | Number of Kohn-Sham states (occupied + empty):       96
------------------------------------------------------------

------------------------------------------------------------
          Preparing all fixed parts of the calculation.
------------------------------------------------------------
  Determining machine precision:
    2.225073858507201E-308
  Setting up grids for atomic and cluster calculations.

  Creating wave function, potential, and density for free atoms.

  Species: Al

  List of occupied orbitals and eigenvalues:
    n    l              occ      energy [Ha]    energy [eV]
    1    0           2.0000       -55.621123     -1513.5278
    2    0           2.0000        -3.957030      -107.6763
    3    0           2.0000        -0.272233        -7.4078
    2    1           6.0000        -2.540949       -69.1427
    3    1           1.0000        -0.083300        -2.2667


  Species: F

  List of occupied orbitals and eigenvalues:
    n    l              occ      energy [Ha]    energy [eV]
    1    0           2.0000       -24.399611      -663.9472
    2    0           2.0000        -1.098702       -29.8972
    2    1           5.0000        -0.408210       -11.1080


  Adding cutoff potential to free-atom effective potential.
  Creating fixed part of basis set: Ionic, confined, hydrogenic.
 
  Al                   ion:

  List of free ionic orbitals and eigenvalues:
    n    l      energy [Ha]    energy [eV]
    1    0       -56.418846     -1535.2349
    2    0        -4.732717      -128.7838
    3    0        -0.872690       -23.7471
    2    1        -3.317230       -90.2664


  List of ionic basis orbitals and eigenvalues:
    n    l      energy [Ha]    energy [eV]    outer radius [A]
    3    2        -0.346815        -9.4373       4.594041
    3    1        -0.631870       -17.1940       4.538221
    3    0        -0.872657       -23.7462       4.538221

 
  F                    hydrogenic:
 
  List of hydrogenic basis orbitals: 
    n    l      effective z      eigenvalue [eV]  inner max. [A]     outer max. [A]     outer radius [A]   
    2    1         1.700000        -9.7616           1.243167           1.243167           4.598524
    3    2         7.400000       -82.7828           0.642437           0.642437           3.305741
    3    0         6.800000       -69.9026           0.057798           1.022307           3.781556
 
  Creating atomic-like basis functions for current effective potential.

  Species Al                  :

  List of atomic basis orbitals and eigenvalues:
    n    l      energy [Ha]    energy [eV]    outer radius [A]
    1    0       -55.621123     -1513.5278       0.850197
    2    0        -3.957030      -107.6763       3.144911
    3    0        -0.272233        -7.4078       4.594041
    2    1        -2.540949       -69.1427       3.731966
    3    1        -0.083300        -2.2667       4.594041


  Species F                   :

  List of atomic basis orbitals and eigenvalues:
    n    l      energy [Ha]    energy [eV]    outer radius [A]
    1    0       -24.399611      -663.9472       1.258458
    2    0        -1.098702       -29.8972       4.325857
    2    1        -0.408210       -11.1080       4.487453

  Assembling full basis from fixed parts.
  | Species Al :   atomic orbital   1 s accepted.
  | Species Al :   atomic orbital   2 s accepted.
  | Species Al :    ionic orbital   3 s accepted.
  | Species Al :   atomic orbital   3 s accepted.
  | Species Al :   atomic orbital   2 p accepted.
  | Species Al :    ionic orbital   3 p accepted.
  | Species Al :   atomic orbital   3 p accepted.
  | Species Al :    ionic orbital   3 d accepted.
  | Species F :   atomic orbital   1 s accepted.
  | Species F :    hydro orbital   3 s accepted.
  | Species F :   atomic orbital   2 s accepted.
  | Species F :   atomic orbital   2 p accepted.
  | Species F :    hydro orbital   2 p accepted.
  | Species F :    hydro orbital   3 d accepted.
 
  Basis size parameters after reduction:
  | Total number of radial functions:       14
  | Total number of basis functions :      180
 
  Per-task memory consumption for arrays in subroutine allocate_ext:
  |           4.807768MB.
  Testing on-site integration grid accuracy.
  |  Species  Function  <phi|h_atom|phi> (log., in eV)  <phi|h_atom|phi> (rad., in eV)
           1        1              -1513.5277717935              -1513.5271881332
           1        2               -107.6762691836               -107.6762662489
           1        3                 -6.9467474784                 -6.9471269649
           1        4                  5.5771951849                  5.4862107220 ***
           1        5                -69.1427313144                -69.1427312731
           1        6                 -1.5197375330                 -1.5230432022
           1        7                  6.8210948310                  6.5529872240 ***
           1        8                  4.3216540965                  4.2851170187 ***
           2        9               -663.9471986398               -663.9470363334
           2       10                 16.8514011578                 16.8512525338
           2       11                -28.4490593856                -28.4490661472
           2       12                -11.1080115307                -11.1080620173
           2       13                  7.1940182175                  7.1685154137
           2       14                 44.8544281765                 44.8543763625
 * Note: Onsite integrals marked "***" above are less accurate than
 * onsite_accuracy_threshold =    0.03000 eV. Usually, this is harmless.
 * When in doubt, tighten the "radial" and/or "radial_multiplier" flags to check.

  Preparing densities etc. for the partition functions (integrals / Hartree potential).

  Preparations completed.
  max(cpu_time)          :      0.184 s.
  Wall clock time (cpu1) :      0.184 s.
------------------------------------------------------------

------------------------------------------------------------
          Begin self-consistency loop: Initialization.

          Date     :  20220517, Time     :  114251.742
------------------------------------------------------------

  Initializing index lists of integration centers etc. from given atomic structure:
  | Number of centers in hartree potential         :        12
  | Number of centers in hartree multipole         :        12
  | Number of centers in electron density summation:        12
  | Number of centers in basis integrals           :        12
  | Number of centers in integrals                 :        12
  | Number of centers in hamiltonian               :        12
  * Using 24 tasks for Scalapack Eigenvalue solver.
  Detailed listing of tasks and assigned k-points:
  (for non-periodic systems, the "k-point" denotes an internal label only)
   Task     0 k-point     1 on node-k98e-003
   Task     1 k-point     1 on node-k98e-003
   Task     2 k-point     1 on node-k98e-003
   Task     3 k-point     1 on node-k98e-003
   Task     4 k-point     1 on node-k98e-003
   Task     5 k-point     1 on node-k98e-003
   Task     6 k-point     1 on node-k98e-003
   Task     7 k-point     1 on node-k98e-003
   Task     8 k-point     1 on node-k98e-003
   Task     9 k-point     1 on node-k98e-003
   Task    10 k-point     1 on node-k98e-003
   Task    11 k-point     1 on node-k98e-003
   Task    12 k-point     1 on node-k98e-003
   Task    13 k-point     1 on node-k98e-003
   Task    14 k-point     1 on node-k98e-003
   Task    15 k-point     1 on node-k98e-003
   Task    16 k-point     1 on node-k98e-003
   Task    17 k-point     1 on node-k98e-003
   Task    18 k-point     1 on node-k98e-003
   Task    19 k-point     1 on node-k98e-003
   Task    20 k-point     1 on node-k98e-003
   Task    21 k-point     1 on node-k98e-003
   Task    22 k-point     1 on node-k98e-003
   Task    23 k-point     1 on node-k98e-003
  Tasks:    24 split into      6 X      4 BLACS grid
  Calculating block size based on n_basis =          180  max_nprow =            6  max_npcol =            4
  ScaLAPACK block size set to:           16
  Allocating        0.012 MB for ovlp
  Allocating        0.012 MB for ham
  Allocating        0.012 MB for eigenvec
  Required Scalapack workspace - INTEGER:            1  REAL:             1
  Partitioning the integration grid into batches with parallel hashing+maxmin method.
  | Number of batches:     1035
  | Maximal batch size:     197
  | Minimal batch size:      22
  | Average batch size:      88.812
  | Standard deviation of batch sizes:      23.539

  Integration load balanced across    24 MPI tasks.
  Work distribution over tasks is as follows:
  Task     0 has       3821 integration points.
  Task     1 has       3807 integration points.
  Task     2 has       3856 integration points.
  Task     3 has       3825 integration points.
  Task     4 has       3812 integration points.
  Task     5 has       3866 integration points.
  Task     6 has       3866 integration points.
  Task     7 has       3808 integration points.
  Task     8 has       3818 integration points.
  Task     9 has       3842 integration points.
  Task    10 has       3813 integration points.
  Task    11 has       3850 integration points.
  Task    12 has       3806 integration points.
  Task    13 has       3818 integration points.
  Task    14 has       3827 integration points.
  Task    15 has       3826 integration points.
  Task    16 has       3899 integration points.
  Task    17 has       3814 integration points.
  Task    18 has       3822 integration points.
  Task    19 has       3845 integration points.
  Task    20 has       3793 integration points.
  Task    21 has       3854 integration points.
  Task    22 has       3793 integration points.
  Task    23 has       3839 integration points.
  Initializing partition tables, free-atom densities, potentials, etc. across the integration grid (initialize_grid_storage).
  | initialize_grid_storage: Actual outermost partition radius vs. multipole_radius_free
  | (-- VB: in principle, multipole_radius_free should be larger, hence this output)
  | Species        1: Confinement radius =              4.999999999999999 AA, multipole_radius_free =              5.004487022111096 AA.
  | Species        1: outer_partition_radius set to              5.004487022111096 AA .
  | Species        2: Confinement radius =              4.999999999999999 AA, multipole_radius_free =              5.009370088163274 AA.
  | Species        2: outer_partition_radius set to              5.009370088163274 AA .
  | The sparse table of interatomic distances needs          1.64 kbyte instead of         1.15 kbyte of memory.
  | Using the partition_type stratmann_smoother will reduce your memory usage.
  | Net number of integration points:    91920
  | of which are non-zero points    :    85853
  Renormalizing the initial density to the exact electron count on the 3D integration grid.
  | Initial density: Formal number of electrons (from input files) :     120.0000000000
  | Integrated number of electrons on 3D grid     :     120.0000062070
  | Charge integration error                      :       0.0000062070
  | Normalization factor for density and gradient :       0.9999999483
  Renormalizing the free-atom superposition density to the exact electron count on the 3D integration grid.
  | Formal number of electrons (from input files) :     120.0000000000
  | Integrated number of electrons on 3D grid     :     120.0000062070
  | Charge integration error                      :       0.0000062070
  | Normalization factor for density and gradient :       0.9999999483
  Obtaining max. number of non-zero basis functions in each batch (get_n_compute_maxes).
  | Maximal number of non-zero basis functions:      163 in task     0
  | Maximal number of non-zero basis functions:      164 in task     1
  | Maximal number of non-zero basis functions:      164 in task     2
  | Maximal number of non-zero basis functions:      171 in task     3
  | Maximal number of non-zero basis functions:      170 in task     4
  | Maximal number of non-zero basis functions:      171 in task     5
  | Maximal number of non-zero basis functions:      165 in task     6
  | Maximal number of non-zero basis functions:      164 in task     7
  | Maximal number of non-zero basis functions:      165 in task     8
  | Maximal number of non-zero basis functions:      166 in task     9
  | Maximal number of non-zero basis functions:      164 in task    10
  | Maximal number of non-zero basis functions:      170 in task    11
  | Maximal number of non-zero basis functions:      164 in task    12
  | Maximal number of non-zero basis functions:      170 in task    13
  | Maximal number of non-zero basis functions:      163 in task    14
  | Maximal number of non-zero basis functions:      170 in task    15
  | Maximal number of non-zero basis functions:      165 in task    16
  | Maximal number of non-zero basis functions:      165 in task    17
  | Maximal number of non-zero basis functions:      159 in task    18
  | Maximal number of non-zero basis functions:      163 in task    19
  | Maximal number of non-zero basis functions:      170 in task    20
  | Maximal number of non-zero basis functions:      166 in task    21
  | Maximal number of non-zero basis functions:      171 in task    22
  | Maximal number of non-zero basis functions:      170 in task    23
  Selecting the method for density update.
  Loop over occupied states selected for charge density update.
  Allocating        0.132 MB for KS_eigenvector
  Integrating Hamiltonian matrix: batch-based integration.
  Time summed over all CPUs for integration: real work        0.722 s, elapsed        0.767 s
  Integrating overlap matrix.
  Time summed over all CPUs for integration: real work        0.277 s, elapsed        0.300 s
  Deallocating overlap matrix.

  Updating Kohn-Sham eigenvalues and eigenvectors using ELSI and the ELPA eigensolver.
  Overlap matrix is not singular
  | Lowest and highest eigenvalues :  0.4232E-02,  0.5129E+01
  Finished singularity check of overlap matrix
  | Time :     0.004 s
  Starting ELPA eigensolver
  Finished Cholesky decomposition
  | Time :     0.002 s
  Finished transformation to standard eigenproblem
  | Time :     0.000 s
  Finished solving standard eigenproblem
  | Time :     0.004 s
  Finished back-transformation of eigenvectors
  | Time :     0.000 s

  Obtaining occupation numbers and chemical potential using ELSI.
  | Chemical potential (Fermi level):    -7.70937416 eV
  Writing Kohn-Sham eigenvalues.

  State    Occupation    Eigenvalue [Ha]    Eigenvalue [eV]
      1       2.00000         -55.483365        -1509.77918
      2       2.00000         -55.483362        -1509.77910
      3       2.00000         -55.483336        -1509.77840
      4       2.00000         -24.375633         -663.29471
      5       2.00000         -24.374452         -663.26258
      6       2.00000         -24.374440         -663.26225
      7       2.00000         -24.342990         -662.40647
      8       2.00000         -24.342646         -662.39709
      9       2.00000         -24.340401         -662.33602
     10       2.00000         -24.340153         -662.32926
     11       2.00000         -24.338244         -662.27732
     12       2.00000         -24.337777         -662.26460
     13       2.00000          -3.948576         -107.44623
     14       2.00000          -3.948572         -107.44612
     15       2.00000          -3.948525         -107.44485
     16       2.00000          -2.541000          -69.14413
     17       2.00000          -2.540984          -69.14369
     18       2.00000          -2.540910          -69.14168
     19       2.00000          -2.540461          -69.12945
     20       2.00000          -2.540388          -69.12747
     21       2.00000          -2.540333          -69.12598
     22       2.00000          -2.540100          -69.11963
     23       2.00000          -2.540086          -69.11927
     24       2.00000          -2.539973          -69.11618
     25       2.00000          -1.203082          -32.73752
     26       2.00000          -1.196706          -32.56403
     27       2.00000          -1.195771          -32.53857
     28       2.00000          -1.152589          -31.36353
     29       2.00000          -1.151986          -31.34715
     30       2.00000          -1.149600          -31.28221
     31       2.00000          -1.147437          -31.22335
     32       2.00000          -1.145463          -31.16963
     33       2.00000          -1.144811          -31.15189
     34       2.00000          -0.575865          -15.67007
     35       2.00000          -0.574545          -15.63416
     36       2.00000          -0.551193          -14.99873
     37       2.00000          -0.536050          -14.58665
     38       2.00000          -0.512640          -13.94963
     39       2.00000          -0.504247          -13.72127
     40       2.00000          -0.501966          -13.65920
     41       2.00000          -0.497601          -13.54042
     42       2.00000          -0.494405          -13.45345
     43       2.00000          -0.493518          -13.42931
     44       2.00000          -0.492468          -13.40073
     45       2.00000          -0.491967          -13.38710
     46       2.00000          -0.481624          -13.10567
     47       2.00000          -0.479894          -13.05859
     48       2.00000          -0.477443          -12.99189
     49       2.00000          -0.456583          -12.42425
     50       2.00000          -0.455774          -12.40225
     51       2.00000          -0.455621          -12.39809
     52       2.00000          -0.453547          -12.34163
     53       2.00000          -0.453059          -12.32836
     54       2.00000          -0.451739          -12.29243
     55       2.00000          -0.449124          -12.22128
     56       2.00000          -0.448419          -12.20209
     57       2.00000          -0.447777          -12.18463
     58       2.00000          -0.446926          -12.16149
     59       2.00000          -0.446630          -12.15343
     60       2.00000          -0.446149          -12.14034
     61       0.00000          -0.138412           -3.76639
     62       0.00000          -0.082257           -2.23832
     63       0.00000          -0.080899           -2.20138
     64       0.00000          -0.025296           -0.68833
     65       0.00000          -0.011489           -0.31262
     66       0.00000          -0.002908           -0.07912
     67       0.00000          -0.001301           -0.03541
     68       0.00000           0.038113            1.03711
     69       0.00000           0.053393            1.45290
     70       0.00000           0.053654            1.46000
     71       0.00000           0.080266            2.18416
     72       0.00000           0.081338            2.21331
     73       0.00000           0.137782            3.74924
     74       0.00000           0.161678            4.39949
     75       0.00000           0.163536            4.45005
     76       0.00000           0.181964            4.95149
     77       0.00000           0.184929            5.03219
     78       0.00000           0.190098            5.17284
     79       0.00000           0.194850            5.30214
     80       0.00000           0.199468            5.42780
     81       0.00000           0.204701            5.57020
     82       0.00000           0.212940            5.79440
     83       0.00000           0.214112            5.82628
     84       0.00000           0.227748            6.19734
     85       0.00000           0.238809            6.49831
     86       0.00000           0.253019            6.88499
     87       0.00000           0.272761            7.42221
     88       0.00000           0.294919            8.02517
     89       0.00000           0.298231            8.11528
     90       0.00000           0.301284            8.19836
     91       0.00000           0.304354            8.28190
     92       0.00000           0.317065            8.62776
     93       0.00000           0.346768            9.43604
     94       0.00000           0.349491            9.51014
     95       0.00000           0.355989            9.68696
     96       0.00000           0.371232           10.10173

  Highest occupied state (VBM) at    -12.14033757 eV
  | Occupation number:      2.00000000

  Lowest unoccupied state (CBM) at    -3.76639121 eV
  | Occupation number:      0.00000000

  Overall HOMO-LUMO gap:      8.37394635 eV.
  Calculating total energy contributions from superposition of free atom densities.

  Total energy components:
  | Sum of eigenvalues            :        -887.78185559 Ha      -24157.77342449 eV
  | XC energy correction          :        -144.32013461 Ha       -3927.15067401 eV
  | XC potential correction       :         187.91270445 Ha        5113.36485325 eV
  | Free-atom electrostatic energy:        -781.19706171 Ha      -21257.45361642 eV
  | Hartree energy correction     :           0.00000000 Ha           0.00000000 eV
  | Entropy correction            :           0.00000000 Ha           0.00000000 eV
  | ---------------------------
  | Total energy                  :       -1625.38634746 Ha      -44229.01286168 eV
  | Total energy, T -> 0          :       -1625.38634746 Ha      -44229.01286168 eV  <-- do not rely on this value for anything but (periodic) metals
  | Electronic free energy        :       -1625.38634746 Ha      -44229.01286168 eV

  Derived energy quantities:
  | Kinetic energy                :        1627.55829801 Ha       44288.11464339 eV
  | Electrostatic energy          :       -3108.62451086 Ha      -84589.97683106 eV
  | Energy correction for multipole
  | error in Hartree potential    :           0.00000000 Ha           0.00000000 eV
  | Sum of eigenvalues per atom                           :       -2013.14778537 eV
  | Total energy (T->0) per atom                          :       -3685.75107181 eV  <-- do not rely on this value for anything but (periodic) metals
  | Electronic free energy per atom                       :       -3685.75107181 eV
  Initialize hartree_potential_storage
  Max. number of atoms included in rho_multipole:           12

  End scf initialization - timings             :  max(cpu_time)    wall_clock(cpu1)
  | Time for scf. initialization                :        0.115 s           0.115 s
  | Boundary condition initialization           :        0.000 s           0.000 s
  | Integration                                 :        0.046 s           0.045 s
  | Solution of K.-S. eqns.                     :        0.011 s           0.012 s
  | Grid partitioning                           :        0.035 s           0.035 s
  | Preloading free-atom quantities on grid     :        0.016 s           0.016 s
  | Free-atom superposition energy              :        0.005 s           0.005 s
  | Total energy evaluation                     :        0.000 s           0.000 s

  Partial memory accounting:
  | Current value for overall tracked memory usage:
  |   Minimum:        0.273 MB (on task 23)
  |   Maximum:        0.292 MB (on task  0)
  |   Average:        0.287 MB
  | Peak value for overall tracked memory usage:
  |   Minimum:        1.329 MB (on task 18 after allocating wave)
  |   Maximum:        1.414 MB (on task  5 after allocating wave)
  |   Average:        1.377 MB
  | Largest tracked array allocation so far:
  |   Minimum:        0.239 MB (H_times_psi on task 18)
  |   Maximum:        0.475 MB (all_coords on task  9)
  |   Average:        0.276 MB
  Note:  These values currently only include a subset of arrays which are explicitly tracked.
  The "true" memory usage will be greater.
------------------------------------------------------------
  Evaluating new KS density.
  Integration grid: deviation in total charge (<rho> - N_e) =   0.000000E+00

  Time for density update prior                :  max(cpu_time)    wall_clock(cpu1)
  | self-consistency iterative process          :        0.029 s           0.029 s

------------------------------------------------------------
          Begin self-consistency iteration #    1

  Date     :  20220517, Time     :  114251.886
------------------------------------------------------------
  Pulay mixing of updated and previous charge densities.
  Renormalizing the density to the exact electron count on the 3D integration grid.
  | Formal number of electrons (from input files) :     120.0000000000
  | Integrated number of electrons on 3D grid     :     120.0000000000
  | Charge integration error                      :       0.0000000000
  | Normalization factor for density and gradient :       1.0000000000

  Evaluating partitioned Hartree potential by multipole expansion.
  | Original multipole sum: apparent total charge =   0.334130E-13
  | Sum of charges compensated after spline to logarithmic grids =   0.108946E-03
  | Analytical far-field extrapolation by fixed multipoles:
  | Hartree multipole sum: apparent total charge =   0.329029E-13
  Summing up the Hartree potential.
  Time summed over all CPUs for potential: real work        0.381 s, elapsed        0.386 s
  | RMS charge density error from multipole expansion :   0.104986E-01

  Integrating Hamiltonian matrix: batch-based integration.
  Time summed over all CPUs for integration: real work        0.672 s, elapsed        0.725 s

  Updating Kohn-Sham eigenvalues and eigenvectors using ELSI and the ELPA eigensolver.
  Starting ELPA eigensolver
  Finished transformation to standard eigenproblem
  | Time :     0.000 s
  Finished solving standard eigenproblem
  | Time :     0.003 s
  Finished back-transformation of eigenvectors
  | Time :     0.000 s

  Obtaining occupation numbers and chemical potential using ELSI.
  | Chemical potential (Fermi level):    -7.65052842 eV
  Writing Kohn-Sham eigenvalues.

  State    Occupation    Eigenvalue [Ha]    Eigenvalue [eV]
      1       2.00000         -55.649330        -1514.29531
      2       2.00000         -55.646715        -1514.22417
      3       2.00000         -55.646475        -1514.21762
      4       2.00000         -24.277484         -660.62394
      5       2.00000         -24.272645         -660.49227
      6       2.00000         -24.272346         -660.48414
      7       2.00000         -24.088586         -655.48379
      8       2.00000         -24.079137         -655.22665
      9       2.00000         -24.074120         -655.09015
     10       2.00000         -24.070883         -655.00204
     11       2.00000         -24.065513         -654.85594
     12       2.00000         -24.065253         -654.84886
     13       2.00000          -4.089452         -111.27966
     14       2.00000          -4.087076         -111.21500
     15       2.00000          -4.086866         -111.20928
     16       2.00000          -2.682920          -73.00597
     17       2.00000          -2.682878          -73.00483
     18       2.00000          -2.680584          -72.94241
     19       2.00000          -2.680505          -72.94026
     20       2.00000          -2.680468          -72.93925
     21       2.00000          -2.680374          -72.93669
     22       2.00000          -2.680273          -72.93394
     23       2.00000          -2.678022          -72.87268
     24       2.00000          -2.677815          -72.86704
     25       2.00000          -1.200305          -32.66195
     26       2.00000          -1.191803          -32.43060
     27       2.00000          -1.189394          -32.36506
     28       2.00000          -1.035951          -28.18965
     29       2.00000          -1.027523          -27.96033
     30       2.00000          -1.022289          -27.81790
     31       2.00000          -1.017446          -27.68611
     32       2.00000          -1.012136          -27.54162
     33       2.00000          -1.011856          -27.53401
     34       2.00000          -0.585374          -15.92885
     35       2.00000          -0.582348          -15.84649
     36       2.00000          -0.555151          -15.10644
     37       2.00000          -0.543514          -14.78978
     38       2.00000          -0.503212          -13.69310
     39       2.00000          -0.492921          -13.41305
     40       2.00000          -0.490667          -13.35172
     41       2.00000          -0.485004          -13.19764
     42       2.00000          -0.479435          -13.04609
     43       2.00000          -0.409675          -11.14782
     44       2.00000          -0.400166          -10.88907
     45       2.00000          -0.396933          -10.80110
     46       2.00000          -0.371301          -10.10362
     47       2.00000          -0.369341          -10.05029
     48       2.00000          -0.367302           -9.99481
     49       2.00000          -0.346847           -9.43820
     50       2.00000          -0.345133           -9.39156
     51       2.00000          -0.340653           -9.26964
     52       2.00000          -0.336902           -9.16757
     53       2.00000          -0.335322           -9.12457
     54       2.00000          -0.332678           -9.05262
     55       2.00000          -0.325220           -8.84967
     56       2.00000          -0.322377           -8.77232
     57       2.00000          -0.322064           -8.76380
     58       2.00000          -0.321419           -8.74625
     59       2.00000          -0.320404           -8.71864
     60       2.00000          -0.319505           -8.69418
     61       0.00000          -0.156742           -4.26518
     62       0.00000          -0.086183           -2.34515
     63       0.00000          -0.083442           -2.27057
     64       0.00000          -0.045461           -1.23704
     65       0.00000          -0.031709           -0.86286
     66       0.00000          -0.016280           -0.44299
     67       0.00000          -0.014866           -0.40452
     68       0.00000           0.023117            0.62904
     69       0.00000           0.033115            0.90110
     70       0.00000           0.036310            0.98804
     71       0.00000           0.054473            1.48229
     72       0.00000           0.055008            1.49684
     73       0.00000           0.132422            3.60340
     74       0.00000           0.149921            4.07956
     75       0.00000           0.163872            4.45917
     76       0.00000           0.177024            4.81706
     77       0.00000           0.177347            4.82587
     78       0.00000           0.186592            5.07742
     79       0.00000           0.191051            5.19876
     80       0.00000           0.193357            5.26152
     81       0.00000           0.196712            5.35279
     82       0.00000           0.202503            5.51038
     83       0.00000           0.211915            5.76649
     84       0.00000           0.218569            5.94756
     85       0.00000           0.226744            6.17001
     86       0.00000           0.247031            6.72205
     87       0.00000           0.263396            7.16738
     88       0.00000           0.278484            7.57793
     89       0.00000           0.284371            7.73812
     90       0.00000           0.285686            7.77390
     91       0.00000           0.294526            8.01447
     92       0.00000           0.299662            8.15423
     93       0.00000           0.322231            8.76835
     94       0.00000           0.333862            9.08485
     95       0.00000           0.365593            9.94828
     96       0.00000           0.375388           10.21482

  Highest occupied state (VBM) at     -8.69418205 eV
  | Occupation number:      2.00000000

  Lowest unoccupied state (CBM) at    -4.26517799 eV
  | Occupation number:      0.00000000

  Overall HOMO-LUMO gap:      4.42900406 eV.

  Total energy components:
  | Sum of eigenvalues            :        -882.61058515 Ha      -24017.05599620 eV
  | XC energy correction          :        -145.69943608 Ha       -3964.68337658 eV
  | XC potential correction       :         189.72566117 Ha        5162.69791552 eV
  | Free-atom electrostatic energy:        -781.19706171 Ha      -21257.45361642 eV
  | Hartree energy correction     :          -5.37865671 Ha        -146.36069584 eV
  | Entropy correction            :           0.00000000 Ha           0.00000000 eV
  | ---------------------------
  | Total energy                  :       -1625.16007848 Ha      -44222.85576952 eV
  | Total energy, T -> 0          :       -1625.16007848 Ha      -44222.85576952 eV  <-- do not rely on this value for anything but (periodic) metals
  | Electronic free energy        :       -1625.16007848 Ha      -44222.85576952 eV

  Derived energy quantities:
  | Kinetic energy                :        1634.24001130 Ha       44469.93331272 eV
  | Electrostatic energy          :       -3113.70065370 Ha      -84728.10570566 eV
  | Energy correction for multipole
  | error in Hartree potential    :           0.04479419 Ha           1.21891185 eV
  | Sum of eigenvalues per atom                           :       -2001.42133302 eV
  | Total energy (T->0) per atom                          :       -3685.23798079 eV  <-- do not rely on this value for anything but (periodic) metals
  | Electronic free energy per atom                       :       -3685.23798079 eV
  Evaluating new KS density.
  Integration grid: deviation in total charge (<rho> - N_e) =   1.421085E-14

  Self-consistency convergence accuracy:
  | Change of charge density      :  0.6129E+00
  | Change of sum of eigenvalues  :  0.1407E+03 eV
  | Change of total energy        :  0.6157E+01 eV


------------------------------------------------------------
  End self-consistency iteration #     1       :  max(cpu_time)    wall_clock(cpu1)
  | Time for this iteration                     :        0.082 s           0.082 s
  | Charge density update                       :        0.028 s           0.027 s
  | Density mixing                              :        0.001 s           0.001 s
  | Hartree multipole update                    :        0.001 s           0.001 s
  | Hartree multipole summation                 :        0.016 s           0.017 s
  | Integration                                 :        0.031 s           0.031 s
  | Solution of K.-S. eqns.                     :        0.004 s           0.004 s
  | Total energy evaluation                     :        0.000 s           0.001 s

  Partial memory accounting:
  | Current value for overall tracked memory usage:
  |   Minimum:        0.273 MB (on task 23)
  |   Maximum:        0.292 MB (on task  0)
  |   Average:        0.287 MB
  | Peak value for overall tracked memory usage:
  |   Minimum:        1.329 MB (on task 18 after allocating wave)
  |   Maximum:        1.414 MB (on task  5 after allocating wave)
  |   Average:        1.377 MB
  | Largest tracked array allocation so far:
  |   Minimum:        0.717 MB (gradient_basis_wave on task 18)
  |   Maximum:        0.771 MB (gradient_basis_wave on task  3)
  |   Average:        0.750 MB
  Note:  These values currently only include a subset of arrays which are explicitly tracked.
  The "true" memory usage will be greater.
------------------------------------------------------------

------------------------------------------------------------
          Begin self-consistency iteration #    2

  Date     :  20220517, Time     :  114251.974
------------------------------------------------------------
  Pulay mixing of updated and previous charge densities.
  Renormalizing the density to the exact electron count on the 3D integration grid.
  | Formal number of electrons (from input files) :     120.0000000000
  | Integrated number of electrons on 3D grid     :     120.0000000000
  | Charge integration error                      :      -0.0000000000
  | Normalization factor for density and gradient :       1.0000000000

  Evaluating partitioned Hartree potential by multipole expansion.
  | Original multipole sum: apparent total charge =  -0.661489E-13
  | Sum of charges compensated after spline to logarithmic grids =   0.691722E-04
  | Analytical far-field extrapolation by fixed multipoles:
  | Hartree multipole sum: apparent total charge =  -0.670187E-13
  Summing up the Hartree potential.
  Time summed over all CPUs for potential: real work        0.380 s, elapsed        0.384 s
  | RMS charge density error from multipole expansion :   0.124767E-01

  Integrating Hamiltonian matrix: batch-based integration.
  Time summed over all CPUs for integration: real work        0.671 s, elapsed        0.719 s

  Updating Kohn-Sham eigenvalues and eigenvectors using ELSI and the ELPA eigensolver.
  Starting ELPA eigensolver
  Finished transformation to standard eigenproblem
  | Time :     0.000 s
  Finished solving standard eigenproblem
  | Time :     0.003 s
  Finished back-transformation of eigenvectors
  | Time :     0.000 s

  Obtaining occupation numbers and chemical potential using ELSI.
  | Chemical potential (Fermi level):    -7.82482353 eV
  Highest occupied state (VBM) at     -9.89696054 eV
  | Occupation number:      2.00000000

  Lowest unoccupied state (CBM) at    -4.45263473 eV
  | Occupation number:      0.00000000

  Overall HOMO-LUMO gap:      5.44432581 eV.

  Checking to see if s.c.f. parameters should be adjusted.

  Total energy components:
  | Sum of eigenvalues            :        -885.82592539 Ha      -24104.54985580 eV
  | XC energy correction          :        -145.19256928 Ha       -3950.89082929 eV
  | XC potential correction       :         189.05873191 Ha        5144.54984710 eV
  | Free-atom electrostatic energy:        -781.19706171 Ha      -21257.45361642 eV
  | Hartree energy correction     :          -1.93343610 Ha         -52.61147312 eV
  | Entropy correction            :           0.00000000 Ha           0.00000000 eV
  | ---------------------------
  | Total energy                  :       -1625.09026057 Ha      -44220.95592754 eV
  | Total energy, T -> 0          :       -1625.09026057 Ha      -44220.95592754 eV  <-- do not rely on this value for anything but (periodic) metals
  | Electronic free energy        :       -1625.09026057 Ha      -44220.95592754 eV

  Derived energy quantities:
  | Kinetic energy                :        1630.29248184 Ha       44362.51557090 eV
  | Electrostatic energy          :       -3110.19017313 Ha      -84632.58066914 eV
  | Energy correction for multipole
  | error in Hartree potential    :           0.04888016 Ha           1.33009684 eV
  | Sum of eigenvalues per atom                           :       -2008.71248798 eV
  | Total energy (T->0) per atom                          :       -3685.07966063 eV  <-- do not rely on this value for anything but (periodic) metals
  | Electronic free energy per atom                       :       -3685.07966063 eV
  Evaluating new KS density.
  Integration grid: deviation in total charge (<rho> - N_e) =   2.842171E-14

  Self-consistency convergence accuracy:
  | Change of charge density      :  0.4973E+00
  | Change of sum of eigenvalues  : -0.8749E+02 eV
  | Change of total energy        :  0.1900E+01 eV


------------------------------------------------------------
  End self-consistency iteration #     2       :  max(cpu_time)    wall_clock(cpu1)
  | Time for this iteration                     :        0.085 s           0.081 s
  | Charge density update                       :        0.027 s           0.027 s
  | Density mixing                              :        0.005 s           0.001 s
  | Hartree multipole update                    :        0.001 s           0.002 s
  | Hartree multipole summation                 :        0.016 s           0.016 s
  | Integration                                 :        0.030 s           0.030 s
  | Solution of K.-S. eqns.                     :        0.004 s           0.005 s
  | Total energy evaluation                     :        0.000 s           0.000 s

  Partial memory accounting:
  | Current value for overall tracked memory usage:
  |   Minimum:        0.274 MB (on task 23)
  |   Maximum:        0.293 MB (on task  0)
  |   Average:        0.288 MB
  | Peak value for overall tracked memory usage:
  |   Minimum:        1.329 MB (on task 18 after allocating wave)
  |   Maximum:        1.414 MB (on task  5 after allocating wave)
  |   Average:        1.377 MB
  | Largest tracked array allocation so far:
  |   Minimum:        0.717 MB (gradient_basis_wave on task 18)
  |   Maximum:        0.771 MB (gradient_basis_wave on task  3)
  |   Average:        0.750 MB
  Note:  These values currently only include a subset of arrays which are explicitly tracked.
  The "true" memory usage will be greater.
------------------------------------------------------------

------------------------------------------------------------
          Begin self-consistency iteration #    3

  Date     :  20220517, Time     :  114252.061
------------------------------------------------------------
  Pulay mixing of updated and previous charge densities.
  Renormalizing the density to the exact electron count on the 3D integration grid.
  | Formal number of electrons (from input files) :     120.0000000000
  | Integrated number of electrons on 3D grid     :     120.0000000000
  | Charge integration error                      :       0.0000000000
  | Normalization factor for density and gradient :       1.0000000000

  Evaluating partitioned Hartree potential by multipole expansion.
  | Original multipole sum: apparent total charge =   0.559599E-14
  | Sum of charges compensated after spline to logarithmic grids =   0.886678E-04
  | Analytical far-field extrapolation by fixed multipoles:
  | Hartree multipole sum: apparent total charge =   0.739162E-14
  Summing up the Hartree potential.
  Time summed over all CPUs for potential: real work        0.380 s, elapsed        0.384 s
  | RMS charge density error from multipole expansion :   0.171735E-01

  Integrating Hamiltonian matrix: batch-based integration.
  Time summed over all CPUs for integration: real work        0.671 s, elapsed        0.720 s

  Updating Kohn-Sham eigenvalues and eigenvectors using ELSI and the ELPA eigensolver.
  Starting ELPA eigensolver
  Finished transformation to standard eigenproblem
  | Time :     0.000 s
  Finished solving standard eigenproblem
  | Time :     0.004 s
  Finished back-transformation of eigenvectors
  | Time :     0.000 s

  Obtaining occupation numbers and chemical potential using ELSI.
  | Chemical potential (Fermi level):    -7.89250558 eV
  Highest occupied state (VBM) at     -9.65660100 eV
  | Occupation number:      2.00000000

  Lowest unoccupied state (CBM) at    -4.71208378 eV
  | Occupation number:      0.00000000

  Overall HOMO-LUMO gap:      4.94451722 eV.

  Total energy components:
  | Sum of eigenvalues            :        -886.95474739 Ha      -24135.26666523 eV
  | XC energy correction          :        -145.16116758 Ha       -3950.03634539 eV
  | XC potential correction       :         189.01605957 Ha        5143.38867360 eV
  | Free-atom electrostatic energy:        -781.19706171 Ha      -21257.45361642 eV
  | Hartree energy correction     :          -0.79232967 Ha         -21.56038743 eV
  | Entropy correction            :           0.00000000 Ha           0.00000000 eV
  | ---------------------------
  | Total energy                  :       -1625.08924678 Ha      -44220.92834086 eV
  | Total energy, T -> 0          :       -1625.08924678 Ha      -44220.92834086 eV  <-- do not rely on this value for anything but (periodic) metals
  | Electronic free energy        :       -1625.08924678 Ha      -44220.92834086 eV

  Derived energy quantities:
  | Kinetic energy                :        1628.61538560 Ha       44316.87946008 eV
  | Electrostatic energy          :       -3108.54346480 Ha      -84587.77145555 eV
  | Energy correction for multipole
  | error in Hartree potential    :           0.06442611 Ha           1.75312370 eV
  | Sum of eigenvalues per atom                           :       -2011.27222210 eV
  | Total energy (T->0) per atom                          :       -3685.07736174 eV  <-- do not rely on this value for anything but (periodic) metals
  | Electronic free energy per atom                       :       -3685.07736174 eV
  Evaluating new KS density.
  Integration grid: deviation in total charge (<rho> - N_e) =   5.684342E-14

  Self-consistency convergence accuracy:
  | Change of charge density      :  0.1266E+00
  | Change of sum of eigenvalues  : -0.3072E+02 eV
  | Change of total energy        :  0.2759E-01 eV


------------------------------------------------------------
  End self-consistency iteration #     3       :  max(cpu_time)    wall_clock(cpu1)
  | Time for this iteration                     :        0.084 s           0.082 s
  | Charge density update                       :        0.027 s           0.028 s
  | Density mixing                              :        0.004 s           0.002 s
  | Hartree multipole update                    :        0.001 s           0.001 s
  | Hartree multipole summation                 :        0.016 s           0.017 s
  | Integration                                 :        0.030 s           0.030 s
  | Solution of K.-S. eqns.                     :        0.004 s           0.004 s
  | Total energy evaluation                     :        0.000 s           0.000 s

  Partial memory accounting:
  | Current value for overall tracked memory usage:
  |   Minimum:        0.274 MB (on task 23)
  |   Maximum:        0.293 MB (on task  0)
  |   Average:        0.288 MB
  | Peak value for overall tracked memory usage:
  |   Minimum:        1.329 MB (on task 18 after allocating wave)
  |   Maximum:        1.414 MB (on task  5 after allocating wave)
  |   Average:        1.377 MB
  | Largest tracked array allocation so far:
  |   Minimum:        0.717 MB (gradient_basis_wave on task 18)
  |   Maximum:        0.771 MB (gradient_basis_wave on task  3)
  |   Average:        0.750 MB
  Note:  These values currently only include a subset of arrays which are explicitly tracked.
  The "true" memory usage will be greater.
------------------------------------------------------------

------------------------------------------------------------
          Begin self-consistency iteration #    4

  Date     :  20220517, Time     :  114252.150
------------------------------------------------------------
  Pulay mixing of updated and previous charge densities.
  Renormalizing the density to the exact electron count on the 3D integration grid.
  | Formal number of electrons (from input files) :     120.0000000000
  | Integrated number of electrons on 3D grid     :     120.0000000000
  | Charge integration error                      :       0.0000000000
  | Normalization factor for density and gradient :       1.0000000000

  Evaluating partitioned Hartree potential by multipole expansion.
  | Original multipole sum: apparent total charge =   0.578662E-14
  | Sum of charges compensated after spline to logarithmic grids =   0.977413E-04
  | Analytical far-field extrapolation by fixed multipoles:
  | Hartree multipole sum: apparent total charge =   0.420929E-14
  Summing up the Hartree potential.
  Time summed over all CPUs for potential: real work        0.380 s, elapsed        0.384 s
  | RMS charge density error from multipole expansion :   0.194649E-01

  Integrating Hamiltonian matrix: batch-based integration.
  Time summed over all CPUs for integration: real work        0.672 s, elapsed        0.719 s

  Updating Kohn-Sham eigenvalues and eigenvectors using ELSI and the ELPA eigensolver.
  Starting ELPA eigensolver
  Finished transformation to standard eigenproblem
  | Time :     0.000 s
  Finished solving standard eigenproblem
  | Time :     0.003 s
  Finished back-transformation of eigenvectors
  | Time :     0.001 s

  Obtaining occupation numbers and chemical potential using ELSI.
  | Chemical potential (Fermi level):    -7.89066074 eV
  Highest occupied state (VBM) at     -9.77362456 eV
  | Occupation number:      2.00000000

  Lowest unoccupied state (CBM) at    -4.66712655 eV
  | Occupation number:      0.00000000

  Overall HOMO-LUMO gap:      5.10649801 eV.

  Total energy components:
  | Sum of eigenvalues            :        -887.13319053 Ha      -24140.12235011 eV
  | XC energy correction          :        -145.14246650 Ha       -3949.52746310 eV
  | XC potential correction       :         188.99065242 Ha        5142.69730999 eV
  | Free-atom electrostatic energy:        -781.19706171 Ha      -21257.45361642 eV
  | Hartree energy correction     :          -0.60499735 Ha         -16.46281553 eV
  | Entropy correction            :           0.00000000 Ha           0.00000000 eV
  | ---------------------------
  | Total energy                  :       -1625.08706366 Ha      -44220.86893517 eV
  | Total energy, T -> 0          :       -1625.08706366 Ha      -44220.86893517 eV  <-- do not rely on this value for anything but (periodic) metals
  | Electronic free energy        :       -1625.08706366 Ha      -44220.86893517 eV

  Derived energy quantities:
  | Kinetic energy                :        1627.87296651 Ha       44296.67720891 eV
  | Electrostatic energy          :       -3107.81756367 Ha      -84568.01868098 eV
  | Energy correction for multipole
  | error in Hartree potential    :           0.07167092 Ha           1.95026494 eV
  | Sum of eigenvalues per atom                           :       -2011.67686251 eV
  | Total energy (T->0) per atom                          :       -3685.07241126 eV  <-- do not rely on this value for anything but (periodic) metals
  | Electronic free energy per atom                       :       -3685.07241126 eV
  Evaluating new KS density.
  Integration grid: deviation in total charge (<rho> - N_e) =   4.263256E-14

  Self-consistency convergence accuracy:
  | Change of charge density      :  0.8524E-01
  | Change of sum of eigenvalues  : -0.4856E+01 eV
  | Change of total energy        :  0.5941E-01 eV


------------------------------------------------------------
  End self-consistency iteration #     4       :  max(cpu_time)    wall_clock(cpu1)
  | Time for this iteration                     :        0.084 s           0.081 s
  | Charge density update                       :        0.027 s           0.028 s
  | Density mixing                              :        0.004 s           0.001 s
  | Hartree multipole update                    :        0.001 s           0.001 s
  | Hartree multipole summation                 :        0.016 s           0.016 s
  | Integration                                 :        0.030 s           0.031 s
  | Solution of K.-S. eqns.                     :        0.004 s           0.004 s
  | Total energy evaluation                     :        0.000 s           0.000 s

  Partial memory accounting:
  | Current value for overall tracked memory usage:
  |   Minimum:        0.274 MB (on task 23)
  |   Maximum:        0.293 MB (on task  0)
  |   Average:        0.288 MB
  | Peak value for overall tracked memory usage:
  |   Minimum:        1.329 MB (on task 18 after allocating wave)
  |   Maximum:        1.414 MB (on task  5 after allocating wave)
  |   Average:        1.377 MB
  | Largest tracked array allocation so far:
  |   Minimum:        0.717 MB (gradient_basis_wave on task 18)
  |   Maximum:        0.771 MB (gradient_basis_wave on task  3)
  |   Average:        0.750 MB
  Note:  These values currently only include a subset of arrays which are explicitly tracked.
  The "true" memory usage will be greater.
------------------------------------------------------------

------------------------------------------------------------
          Begin self-consistency iteration #    5

  Date     :  20220517, Time     :  114252.235
------------------------------------------------------------
  Pulay mixing of updated and previous charge densities.
  Renormalizing the density to the exact electron count on the 3D integration grid.
  | Formal number of electrons (from input files) :     120.0000000000
  | Integrated number of electrons on 3D grid     :     120.0000000000
  | Charge integration error                      :       0.0000000000
  | Normalization factor for density and gradient :       1.0000000000

  Evaluating partitioned Hartree potential by multipole expansion.
  | Original multipole sum: apparent total charge =  -0.416993E-13
  | Sum of charges compensated after spline to logarithmic grids =   0.982115E-04
  | Analytical far-field extrapolation by fixed multipoles:
  | Hartree multipole sum: apparent total charge =  -0.456134E-13
  Summing up the Hartree potential.
  Time summed over all CPUs for potential: real work        0.380 s, elapsed        0.384 s
  | RMS charge density error from multipole expansion :   0.192035E-01

  Integrating Hamiltonian matrix: batch-based integration.
  Time summed over all CPUs for integration: real work        0.671 s, elapsed        0.719 s

  Updating Kohn-Sham eigenvalues and eigenvectors using ELSI and the ELPA eigensolver.
  Starting ELPA eigensolver
  Finished transformation to standard eigenproblem
  | Time :     0.000 s
  Finished solving standard eigenproblem
  | Time :     0.003 s
  Finished back-transformation of eigenvectors
  | Time :     0.001 s

  Obtaining occupation numbers and chemical potential using ELSI.
  | Chemical potential (Fermi level):    -7.85905649 eV
  Highest occupied state (VBM) at     -9.80225650 eV
  | Occupation number:      2.00000000

  Lowest unoccupied state (CBM) at    -4.59485150 eV
  | Occupation number:      0.00000000

  Overall HOMO-LUMO gap:      5.20740500 eV.

  Total energy components:
  | Sum of eigenvalues            :        -886.89545862 Ha      -24133.65333580 eV
  | XC energy correction          :        -145.13685361 Ha       -3949.37472871 eV
  | XC potential correction       :         188.98351573 Ha        5142.50311078 eV
  | Free-atom electrostatic energy:        -781.19706171 Ha      -21257.45361642 eV
  | Hartree energy correction     :          -0.84106335 Ha         -22.88649833 eV
  | Entropy correction            :           0.00000000 Ha           0.00000000 eV
[...]
   Total forces(   7)            :  0.892271E+00  0.320258E+01 -0.494252E-01
  atom #    8
   Hellmann-Feynman              :  0.113545E+00 -0.778393E+00  0.182544E+00
   Ionic forces                  :  0.000000E+00  0.000000E+00  0.000000E+00
   Multipole                     :  0.264594E+00 -0.990961E-01  0.165282E+00
   Hartree pot. SCF incomplete   : -0.354378E-06 -0.306790E-06 -0.662503E-06
   Pulay + GGA                   : -0.110330E+01  0.985461E+00 -0.120102E+01
   ----------------------------------------------------------------
   Total forces(   8)            : -0.725161E+00  0.107971E+00 -0.853191E+00
  atom #    9
   Hellmann-Feynman              : -0.259575E+00  0.832663E+00 -0.369614E+00
   Ionic forces                  :  0.000000E+00  0.000000E+00  0.000000E+00
   Multipole                     : -0.505042E-01  0.688980E-01 -0.302381E+00
   Hartree pot. SCF incomplete   :  0.201336E-06  0.277951E-05  0.240720E-05
   Pulay + GGA                   : -0.262176E-01 -0.104127E+01  0.170490E+01
   ----------------------------------------------------------------
   Total forces(   9)            : -0.336297E+00 -0.139708E+00  0.103290E+01
  atom #   10
   Hellmann-Feynman              : -0.330044E+00 -0.797393E+00  0.287356E+01
   Ionic forces                  :  0.000000E+00  0.000000E+00  0.000000E+00
   Multipole                     : -0.767115E-01 -0.233955E+00  0.632683E+00
   Hartree pot. SCF incomplete   : -0.423408E-06 -0.151285E-05  0.243565E-05
   Pulay + GGA                   :  0.788519E+00  0.195119E+01 -0.684256E+01
   ----------------------------------------------------------------
   Total forces(  10)            :  0.381763E+00  0.919836E+00 -0.333631E+01
  atom #   11
   Hellmann-Feynman              :  0.155938E+00  0.289389E+01 -0.138857E+01
   Ionic forces                  :  0.000000E+00  0.000000E+00  0.000000E+00
   Multipole                     :  0.392908E-01  0.721565E+00 -0.364395E+00
   Hartree pot. SCF incomplete   :  0.343592E-06 -0.369746E-05 -0.636026E-05
   Pulay + GGA                   : -0.333034E+00 -0.656679E+01  0.266648E+01
   ----------------------------------------------------------------
   Total forces(  11)            : -0.137805E+00 -0.295134E+01  0.913515E+00
  atom #   12
   Hellmann-Feynman              :  0.869290E-01 -0.501192E+00  0.639584E+00
   Ionic forces                  :  0.000000E+00  0.000000E+00  0.000000E+00
   Multipole                     : -0.221358E+00  0.226692E-02  0.242741E+00
   Hartree pot. SCF incomplete   :  0.215730E-06 -0.703768E-06 -0.101397E-05
   Pulay + GGA                   :  0.120909E+01  0.767156E+00 -0.126582E+01
   ----------------------------------------------------------------
   Total forces(  12)            :  0.107466E+01  0.268230E+00 -0.383496E+00


  Self-consistency convergence accuracy:
  | Change of charge density      :  0.1400E-05
  | Change of sum of eigenvalues  : -0.8570E-04 eV
  | Change of total energy        :  0.8663E-07 eV
  | Change of forces              :  0.1117E-05 eV/A

  Writing Kohn-Sham eigenvalues.

  State    Occupation    Eigenvalue [Ha]    Eigenvalue [eV]
      1       2.00000         -55.633304        -1513.85924
      2       2.00000         -55.629803        -1513.76396
      3       2.00000         -55.629464        -1513.75473
      4       2.00000         -24.338258         -662.27770
      5       2.00000         -24.335900         -662.21353
      6       2.00000         -24.335759         -662.20969
      7       2.00000         -24.228085         -659.27974
      8       2.00000         -24.218955         -659.03128
      9       2.00000         -24.216031         -658.95173
     10       2.00000         -24.212832         -658.86469
     11       2.00000         -24.211022         -658.81544
     12       2.00000         -24.210069         -658.78948
     13       2.00000          -4.087388         -111.22349
     14       2.00000          -4.084065         -111.13307
     15       2.00000          -4.083753         -111.12458
     16       2.00000          -2.681032          -72.95460
     17       2.00000          -2.679974          -72.92579
     18       2.00000          -2.677736          -72.86489
     19       2.00000          -2.677439          -72.85681
     20       2.00000          -2.676660          -72.83562
     21       2.00000          -2.676308          -72.82605
     22       2.00000          -2.675672          -72.80875
     23       2.00000          -2.672273          -72.71626
     24       2.00000          -2.671974          -72.70812
     25       2.00000          -1.220414          -33.20914
     26       2.00000          -1.212445          -32.99229
     27       2.00000          -1.210533          -32.94027
     28       2.00000          -1.078388          -29.34444
     29       2.00000          -1.069043          -29.09014
     30       2.00000          -1.064249          -28.95969
     31       2.00000          -1.059806          -28.83879
     32       2.00000          -1.056470          -28.74802
     33       2.00000          -1.054981          -28.70750
     34       2.00000          -0.603939          -16.43402
     35       2.00000          -0.601676          -16.37242
     36       2.00000          -0.575741          -15.66670
     37       2.00000          -0.562398          -15.30362
     38       2.00000          -0.521181          -14.18205
     39       2.00000          -0.514208          -13.99231
     40       2.00000          -0.510889          -13.90200
     41       2.00000          -0.505129          -13.74525
     42       2.00000          -0.499898          -13.60292
     43       2.00000          -0.444506          -12.09562
     44       2.00000          -0.436246          -11.87084
     45       2.00000          -0.432780          -11.77654
     46       2.00000          -0.412833          -11.23376
     47       2.00000          -0.410148          -11.16070
     48       2.00000          -0.408241          -11.10880
     49       2.00000          -0.385609          -10.49296
     50       2.00000          -0.383630          -10.43912
     51       2.00000          -0.377644          -10.27622
     52       2.00000          -0.374888          -10.20122
     53       2.00000          -0.373222          -10.15588
     54       2.00000          -0.370896          -10.09259
     55       2.00000          -0.364935           -9.93038
     56       2.00000          -0.363043           -9.87890
     57       2.00000          -0.362143           -9.85442
     58       2.00000          -0.361947           -9.84908
     59       2.00000          -0.360992           -9.82309
     60       2.00000          -0.359610           -9.78550
     61       0.00000          -0.169158           -4.60302
     62       0.00000          -0.098442           -2.67873
     63       0.00000          -0.095377           -2.59533
     64       0.00000          -0.052659           -1.43293
     65       0.00000          -0.037598           -1.02310
     66       0.00000          -0.021491           -0.58480
     67       0.00000          -0.019918           -0.54201
     68       0.00000           0.019860            0.54042
     69       0.00000           0.028137            0.76565
     70       0.00000           0.029607            0.80565
     71       0.00000           0.047975            1.30547
     72       0.00000           0.048440            1.31813
     73       0.00000           0.123666            3.36512
     74       0.00000           0.144908            3.94316
     75       0.00000           0.157946            4.29792
     76       0.00000           0.171417            4.66450
     77       0.00000           0.172505            4.69409
     78       0.00000           0.178104            4.84645
     79       0.00000           0.184139            5.01068
     80       0.00000           0.186887            5.08545
     81       0.00000           0.188241            5.12231
     82       0.00000           0.196045            5.33466
     83       0.00000           0.204788            5.57257
     84       0.00000           0.209975            5.71372
     85       0.00000           0.219481            5.97239
     86       0.00000           0.239283            6.51121
     87       0.00000           0.256698            6.98510
     88       0.00000           0.273144            7.43263
     89       0.00000           0.278986            7.59161
     90       0.00000           0.279914            7.61685
     91       0.00000           0.289531            7.87855
     92       0.00000           0.295209            8.03306
     93       0.00000           0.317516            8.64004
     94       0.00000           0.327638            8.91547
     95       0.00000           0.357231            9.72076
     96       0.00000           0.367402            9.99752

  Highest occupied state (VBM) at     -9.78549734 eV
  | Occupation number:      2.00000000

  Lowest unoccupied state (CBM) at    -4.60301921 eV
  | Occupation number:      0.00000000

  Overall HOMO-LUMO gap:      5.18247814 eV.
  | Chemical Potential                          :    -7.86017259 eV

  Self-consistency cycle converged.


------------------------------------------------------------
  End self-consistency iteration #    13       :  max(cpu_time)    wall_clock(cpu1)
  | Time for this iteration                     :        0.267 s           0.265 s
  | Charge density & force component update     :        0.146 s           0.146 s
  | Density mixing                              :        0.004 s           0.002 s
  | Hartree multipole update                    :        0.001 s           0.001 s
  | Hartree multipole summation                 :        0.048 s           0.049 s
  | Hartree pot. SCF incomplete forces          :        0.032 s           0.032 s
  | Integration                                 :        0.030 s           0.030 s
  | Solution of K.-S. eqns.                     :        0.004 s           0.004 s
  | Total energy evaluation                     :        0.000 s           0.000 s

  Partial memory accounting:
  | Current value for overall tracked memory usage:
  |   Minimum:        0.274 MB (on task 23)
  |   Maximum:        0.293 MB (on task  0)
  |   Average:        0.289 MB
  | Peak value for overall tracked memory usage:
  |   Minimum:        2.953 MB (on task 18 after allocating hessian_basis_wave)
  |   Maximum:        3.134 MB (on task  5 after allocating hessian_basis_wave)
  |   Average:        3.060 MB
  | Largest tracked array allocation so far:
  |   Minimum:        1.434 MB (hessian_basis_wave on task 18)
  |   Maximum:        1.542 MB (hessian_basis_wave on task  3)
  |   Average:        1.500 MB
  Note:  These values currently only include a subset of arrays which are explicitly tracked.
  The "true" memory usage will be greater.
------------------------------------------------------------
  Removing unitary transformations (pure translations, rotations) from forces on atoms.
  Atomic forces before filtering:
  | Net force on center of mass :   0.687702E-03 -0.309844E-02  0.121411E-01 eV/A
  | Net torque on center of mass:   0.246283E-01 -0.140533E-01  0.103541E-02 eV
  Atomic forces after filtering:
  | Net force on center of mass :  -0.356812E-15 -0.401414E-15 -0.138265E-14 eV/A
  | Net torque on center of mass:  -0.113290E-14  0.198258E-14  0.145153E-14 eV

  Energy and forces in a compact form:
  | Total energy uncorrected      :         -0.442208646609791E+05 eV
  | Total energy corrected        :         -0.442208646609791E+05 eV  <-- do not rely on this value for anything but (periodic) metals
  | Electronic free energy        :         -0.442208646609791E+05 eV
  Total atomic forces (unitary forces cleaned) [eV/Ang]:
  |    1         -0.479793335737792E+00          0.164786024521382E+01          0.284066947228527E+01
  |    2          0.330321858615644E+01         -0.634165529935335E+00         -0.112159780073100E+01
  |    3         -0.272240197240463E+01         -0.930339265537871E+00         -0.203776213919162E+01
  |    4         -0.224709948306893E+01         -0.229370918060110E+01          0.145743220792797E+01
  |    5          0.166334190776945E+01         -0.221761210766907E+01          0.178183471856201E+01
  |    6         -0.667285297087310E+00          0.301686559863818E+01         -0.238652990915522E+00
  |    7          0.892020257920168E+00          0.320235385705787E+01         -0.487812305108795E-01
  |    8         -0.724955392871742E+00          0.108807152296659E+00         -0.854541535308509E+00
  |    9         -0.336738132587202E+00         -0.140274500975649E+00          0.103197964888869E+01
  |   10          0.382537280667717E+00          0.921880068886824E+00         -0.333751713314383E+01
  |   11         -0.137652574608520E+00         -0.295057281152604E+01          0.911113540789424E+00
  |   12          0.107480815585236E+01          0.268906474151711E+00         -0.384176758652000E+00

  ------------------------------------ 
  Start decomposition of the XC Energy 
  ------------------------------------ 
  X and C from original XC functional choice 
  Hartree-Fock Energy :          0.000000000 Ha              0.000000000 eV
  X Energy            :       -140.206592180 Ha          -3815.215489251 eV
  C Energy            :         -4.935324698 Ha           -134.297017977 eV
  Total XC Energy     :       -145.141916878 Ha          -3949.512507228 eV
  ------------------------------------ 
  LDA X and C from self-consistent density 
  X Energy LDA        :       -132.773760586 Ha          -3612.957850810 eV
  C Energy LDA        :         -8.823144673 Ha           -240.089982192 eV
  ------------------------------------ 
  End decomposition of the XC Energy 
  ------------------------------------ 

------------------------------------------------------------

------------------------------------------------------------------------------
  Final output of selected total energy values:

  The following output summarizes some interesting total energy values
  at the end of a run (AFTER all relaxation, molecular dynamics, etc.).

  | Total energy of the DFT / Hartree-Fock s.c.f. calculation      :         -44220.864660979 eV
  | Final zero-broadening corrected energy (caution - metals only) :         -44220.864660979 eV
  | For reference only, the value of 1 Hartree used in FHI-aims is :             27.211384500 eV

  Before relying on these values, please be sure to understand exactly which
  total energy value is referred to by a given number. Different objects may
  all carry the same name 'total energy'. Definitions:

  Total energy of the DFT / Hartree-Fock s.c.f. calculation:
  | Note that this energy does not include ANY quantities calculated after the
  | s.c.f. cycle, in particular not ANY RPA, MP2, etc. many-body perturbation terms.

  Final zero-broadening corrected energy:
  | For metallic systems only, a broadening of the occupation numbers at the Fermi
  | level can be extrapolated back to zero broadening by an electron-gas inspired
  | formula. For all systems that are not real metals, this value can be
  | meaningless and should be avoided.

------------------------------------------------------------------------------
  Methods described in the following list of references were used in this FHI-aims run.
  If you publish the results, please make sure to cite these reference if they apply.
  FHI-aims is an academic code, and for our developers (often, Ph.D. students
  and postdocs), scientific credit in the community is essential.
  Thank you for helping us!

  For any use of FHI-aims, please cite:

    Volker Blum, Ralf Gehrke, Felix Hanke, Paula Havu, Ville Havu,
    Xinguo Ren, Karsten Reuter, and Matthias Scheffler
    'Ab initio molecular simulations with numeric atom-centered orbitals'
    Computer Physics Communications 180, 2175-2196 (2009)
    http://dx.doi.org/10.1016/j.cpc.2009.06.022


  The ELSI infrastructure was used in your run to solve the Kohn-Sham electronic structure.
  Please check out http://elsi-interchange.org to learn more.
  If scalability is important for your project, please acknowledge ELSI by citing:

    V. W-z. Yu, F. Corsetti, A. Garcia, W. P. Huhn, M. Jacquelin, W. Jia,
    B. Lange, L. Lin, J. Lu, W. Mi, A. Seifitokaldani, A. Vazquez-Mayagoitia,
    C. Yang, H. Yang, and V. Blum
    'ELSI: A unified software interface for Kohn-Sham electronic structure solvers'
    Computer Physics Communications 222, 267-285 (2018).
    http://dx.doi.org/10.1016/j.cpc.2017.09.007


  For the real-space grid partitioning and parallelization used in this calculation, please cite:

    Ville Havu, Volker Blum, Paula Havu, and Matthias Scheffler,
    'Efficient O(N) integration for all-electron electronic structure calculation'
    'using numerically tabulated basis functions'
    Journal of Computational Physics 228, 8367-8379 (2009).
    http://dx.doi.org/10.1016/j.jcp.2009.08.008

  Of course, there are many other important community references, e.g., those cited in the
  above references. Our list is limited to references that describe implementations in the
  FHI-aims code. The reason is purely practical (length of this list) - please credit others as well.

------------------------------------------------------------
          Leaving FHI-aims.
          Date     :  20220517, Time     :  114253.411

          Computational steps:
          | Number of self-consistency cycles          :           13
          | Number of SCF (re)initializations          :            1

          Detailed time accounting                     :  max(cpu_time)    wall_clock(cpu1)
          | Total time                                  :        1.839 s           1.898 s
          | Preparation time                            :        0.184 s           0.184 s
          | Boundary condition initalization            :        0.000 s           0.000 s
          | Grid partitioning                           :        0.035 s           0.035 s
          | Preloading free-atom quantities on grid     :        0.016 s           0.016 s
          | Free-atom superposition energy              :        0.005 s           0.005 s
          | Total time for integrations                 :        0.441 s           0.441 s
          | Total time for solution of K.-S. equations  :        0.063 s           0.065 s
          | Total time for density & force components   :        0.625 s           0.625 s
          | Total time for mixing                       :        0.056 s           0.028 s
          | Total time for Hartree multipole update     :        0.017 s           0.016 s
          | Total time for Hartree multipole sum        :        0.276 s           0.278 s
          | Total time for total energy evaluation      :        0.002 s           0.002 s
          | Total time NSC force correction             :        0.064 s           0.064 s
          | Total time for scaled ZORA corrections      :        0.000 s           0.000 s

          Partial memory accounting:
          | Residual value for overall tracked memory usage across tasks:     0.000000 MB (should be 0.000000 MB)
          | Peak values for overall tracked memory usage:
          |   Minimum:        2.953 MB (on task 18 after allocating hessian_basis_wave)
          |   Maximum:        3.134 MB (on task  5 after allocating hessian_basis_wave)
          |   Average:        3.060 MB
          | Largest tracked array allocation:
          |   Minimum:        1.434 MB (hessian_basis_wave on task 18)
          |   Maximum:        1.542 MB (hessian_basis_wave on task  3)
          |   Average:        1.500 MB
          Note:  These values currently only include a subset of arrays which are explicitly tracked.
          The "true" memory usage will be greater.

          Have a nice day.
------------------------------------------------------------
