------------------------------------------------------------
          Invoking FHI-aims ...

          When using FHI-aims, please cite the following reference:

            Volker Blum, Ralf Gehrke, Felix Hanke, Paula Havu,
            Ville Havu, Xinguo Ren, Karsten Reuter, and Matthias Scheffler,
            'Ab Initio Molecular Simulations with Numeric Atom-Centered Orbitals',
            Computer Physics Communications 180, 2175-2196 (2009)

          In addition, many other developments in FHI-aims are likely important for
          your particular application. A partial list of references is given at the end of
          this file. Thank you for giving credit to the authors of these developments.

          For any questions about FHI-aims, please visit our slack channel at

            https://fhi-aims.slack.com

          and our main development and support site at

            https://aims-git.rz-berlin.mpg.de .

          The latter site, in particular, has a wiki to collect information, as well
          as an issue tracker to log discussions, suggest improvements, and report issues
          or bugs. https://aims-git.rz-berlin.mpg.de is also the main development site
          of the project and all new and updated code versions can be obtained there.
          Please send an email to aims-coordinators@fhi-berlin.mpg.de and we will add
          you to these sites. They are for you and everyone is welcome there.

------------------------------------------------------------



  Date     :  20220517, Time     :  112401.445
  Time zero on CPU 1             :   0.357930000000000E-01  s.
  Internal wall clock time zero  :           422018641.445  s.

  FHI-aims created a unique identifier for this run for later identification
  aims_uuid : 17B4A55B-672C-4043-A728-55751D8CD93A

  Build configuration of the current instance of FHI-aims
  -------------------------------------------------------
  FHI-aims version      : 210914
  Commit number         : GITDIR-NOTFOUND
  CMake host system     : Linux-3.10.0-693.17.1.el7.x86_64
  CMake version         : 3.21.1
  Fortran compiler      : /shared/ucl/apps/intel/2018.Update3/impi/2018.3.222/intel64/bin/mpiifort (Intel) version 18.0.3.20180410
  Fortran compiler flags: -O3 -ip -fp-model precise
  C compiler            : /shared/ucl/apps/intel/2018.Update3/compilers_and_libraries_2018.3.222/linux/bin/intel64/icc (Intel) version 18.0.3.20180410
  C compiler flags      : -O3 -ip -fp-model precise -std=gnu99
  ELPA2 kernel          : AVX2
  Using MPI
  Using ScaLAPACK
  Using LibXC
  Using i-PI
  Using RLSY
  Linking against: /shared/ucl/apps/intel/2019.Update5/compilers_and_libraries_2019.5.281/linux/mkl/lib/intel64/libmkl_intel_lp64.so
                   /shared/ucl/apps/intel/2019.Update5/compilers_and_libraries_2019.5.281/linux/mkl/lib/intel64/libmkl_sequential.so
                   /shared/ucl/apps/intel/2019.Update5/compilers_and_libraries_2019.5.281/linux/mkl/lib/intel64/libmkl_core.so
                   /shared/ucl/apps/intel/2019.Update5/compilers_and_libraries_2019.5.281/linux/mkl/lib/intel64/libmkl_blacs_intelmpi_lp64.so
                   /shared/ucl/apps/intel/2019.Update5/compilers_and_libraries_2019.5.281/linux/mkl/lib/intel64/libmkl_scalapack_lp64.so

  Using       24 parallel tasks.
  Task        0 on host node-k98i-010 reporting.
  Task        1 on host node-k98i-010 reporting.
  Task        2 on host node-k98i-010 reporting.
  Task        3 on host node-k98i-010 reporting.
  Task        4 on host node-k98i-010 reporting.
  Task        5 on host node-k98i-010 reporting.
  Task        6 on host node-k98i-010 reporting.
  Task        7 on host node-k98i-010 reporting.
  Task        8 on host node-k98i-010 reporting.
  Task        9 on host node-k98i-010 reporting.
  Task       10 on host node-k98i-010 reporting.
  Task       11 on host node-k98i-010 reporting.
  Task       12 on host node-k98i-010 reporting.
  Task       13 on host node-k98i-010 reporting.
  Task       14 on host node-k98i-010 reporting.
  Task       15 on host node-k98i-010 reporting.
  Task       16 on host node-k98i-010 reporting.
  Task       17 on host node-k98i-010 reporting.
  Task       18 on host node-k98i-010 reporting.
  Task       19 on host node-k98i-010 reporting.
  Task       20 on host node-k98i-010 reporting.
  Task       21 on host node-k98i-010 reporting.
  Task       22 on host node-k98i-010 reporting.
  Task       23 on host node-k98i-010 reporting.

  Performing system and environment tests:
  | Environment variable OMP_NUM_THREADS correctly set to 1.
  | Checking for ScaLAPACK...
  | Testing pdtran()...
  | All pdtran() tests passed.

  Obtaining array dimensions for all initial allocations:
  
  -----------------------------------------------------------------------
  Parsing control.in (first pass over file, find array dimensions only).
  The contents of control.in will be repeated verbatim below
  unless switched off by setting 'verbatim_writeout .false.' .
  in the first line of control.in .
  -----------------------------------------------------------------------
  
  #########################################################################################  Physical model
  #########################################################################################
  xc                 pbesol
  spin               none
  relativistic       atomic_zora scalar
  charge             0.0
  #  SCF convergence
  occupation_type    gaussian 0.01
  mixer              pulay
  n_max_pulay        10
  charge_mix_param   0.5
  sc_accuracy_rho    1E-5
  sc_accuracy_eev    1E-3
  sc_accuracy_etot   1E-6
  sc_accuracy_forces 1E-4
  sc_iter_limit      1500
  #  Relaxation
  #relax_geometry   bfgs 1.e-3
  
  ################################################################################
  #
  #  FHI-aims code project
  #  VB, Fritz-Haber Institut, 2009
  #
  #  Suggested "light" defaults for Al atom (to be pasted into control.in file)
  #  Be sure to double-check any results obtained with these settings for post-processing,
  #  e.g., with the "tight" defaults and larger basis sets.
  #
  ################################################################################
    species        Al
  #     global species definitions
      nucleus             13
      mass                26.9815386
  #
      l_hartree           4
  #
      cut_pot             3.5          1.5  1.0
      basis_dep_cutoff    1e-4
  #
      radial_base         41 5.0
      radial_multiplier   1
      angular_grids       specified
        division   0.6594  110
        division   0.8170  194
        division   0.9059  302
  #      division   1.0363  434
  #      division   1.1443  590
  #      division   1.2621  770
  #      division   2.8177  974
  #      outer_grid   974
        outer_grid   302
  ################################################################################
  #
  #  Definition of "minimal" basis
  #
  ################################################################################
  #     valence basis states
      valence      3  s   2.
      valence      3  p   1.
  #     ion occupancy
      ion_occ      3  s   1.
      ion_occ      2  p   6.
  ################################################################################
  #
  #  Suggested additional basis functions. For production calculations,
  #  uncomment them one after another (the most important basis functions are
  #  listed first).
  #
  #  Constructed for dimers: 2.0 A, 2.5 A, 3.0 A, 3.75 A, 4.5 A
  #
  ################################################################################
  #  "First tier" - improvements: -199.47 meV to -10.63 meV
       ionic 3 d auto
       ionic 3 p auto
  #     hydro 4 f 4.7
       ionic 3 s auto
  #  "Second tier" - improvements: -5.35 meV to -1.57 meV
  #     hydro 5 g 7
  #     hydro 3 d 6
  #     hydro 2 s 11.6
  #     hydro 2 p 0.9
  #  "Third tier" - improvements: -0.63 meV to -0.20 meV
  #     hydro 5 f 7.6
  #     hydro 4 p 7.2
  #     hydro 4 s 3.7
  #     hydro 4 d 7.6
  #  "Fourth tier" - improvements: -0.17 meV to -0.08 meV
  #     hydro 4 d 13.6
  #     hydro 5 g 11.2
  #     hydro 4 d 0.9
  #     hydro 1 s 0.4
  #     hydro 4 p 0.1
  #     hydro 5 f 9.8
  #  Further basis functions that fell out of the optimization - noise level...
  #     hydro 4 p 5
  
  ################################################################################
  #
  #  FHI-aims code project
  #  VB, Fritz-Haber Institut, 2009
  #
  #  Suggested "light" defaults for F atom (to be pasted into control.in file)
  #  Be sure to double-check any results obtained with these settings for post-processing,
  #  e.g., with the "tight" defaults and larger basis sets.
  #
  ################################################################################
    species        F
  #     global species definitions
      nucleus             9
      mass                18.9984032
  #
      l_hartree           4
  #
      cut_pot             3.5  1.5  1.0
      basis_dep_cutoff    1e-4
  #
      radial_base         37 5.0
      radial_multiplier   1
      angular_grids specified
        division   0.4014  110
        division   0.5291  194
        division   0.6019  302
  #      division   0.6814  434
  #      division   0.7989  590
  #      division   0.8965  770
  #      division   1.3427  974
  #      outer_grid   974
        outer_grid   302
  ################################################################################
  #
  #  Definition of "minimal" basis
  #
  ################################################################################
  #     valence basis states
      valence      2  s   2.
      valence      2  p   5.
  #     ion occupancy
      ion_occ      2  s   1.
      ion_occ      2  p   4.
  ################################################################################
  #
  #  Suggested additional basis functions. For production calculations,
  #  uncomment them one after another (the most important basis functions are
  #  listed first).
  #
  #  Constructed for dimers: 1.2 A, 1.418 A, 1.75 A, 2.25 A, 3.25 A
  #
  ################################################################################
  #  "First tier" - improvements: -149.44 meV to -45.88 meV
       hydro 2 p 1.7
       hydro 3 d 7.4
       hydro 3 s 6.8
  #  "Second tier" - improvements: -12.96 meV to -1.56 meV
  #     hydro 4 f 11.2
  #     ionic 2 p auto
  #     hydro 1 s 0.75
  #     hydro 4 d 8.8
  #     hydro 5 g 16.8
  #  "Third tier" - improvements: -0.58 meV to -0.05 meV
  #     hydro 3 p 6.2
  #     hydro 3 s 3.2
  #     hydro 4 f 9.6
  #     hydro 3 s 19.6
  #     hydro 4 d 8.6
  #     hydro 5 g 14.4
  # Further basis functions: -0.05 meV and below
  #     hydro 3 p 4.2
  
  -----------------------------------------------------------------------
  Completed first pass over input file control.in .
  -----------------------------------------------------------------------
  
  
  -----------------------------------------------------------------------
  Parsing geometry.in (first pass over file, find array dimensions only).
  The contents of geometry.in will be repeated verbatim below
  unless switched off by setting 'verbatim_writeout .false.' .
  in the first line of geometry.in .
  -----------------------------------------------------------------------
  
  atom 0.380155995 -0.598923078 1.744860917 Al
  atom 2.332762563 -1.780457454 -0.538341490 Al
  atom -0.915061782 -1.839196940 -0.978883336 Al
  atom 3.362037911 -0.319215593 -0.948022403 F
  atom -1.892533651 -0.743859889 -2.076281821 F
  atom 2.879142987 -3.523299277 -0.728471792 F
  atom -1.156475573 -3.649556785 -0.801710669 F
  atom 1.779219196 -1.712052932 1.238779800 F
  atom 0.807022164 -1.508811282 -1.492884865 F
  atom -0.006937049 -1.173849441 3.426391481 F
  atom 0.747558379 1.139539566 1.248308672 F
  atom -1.073163069 -1.157556521 0.733087612 F
  
  -----------------------------------------------------------------------
  Completed first pass over input file geometry.in .
  -----------------------------------------------------------------------
  

  Basic array size parameters:
  | Number of species                 :        2
  | Number of atoms                   :       12
  | Max. basis fn. angular momentum   :        2
  | Max. atomic/ionic basis occupied n:        3
  | Max. number of basis fn. types    :        3
  | Max. radial fns per species/type  :        5
  | Max. logarithmic grid size        :     1340
  | Max. radial integration grid size :       41
  | Max. angular integration grid size:      302
  | Max. angular grid division number :        8
  | Radial grid for Hartree potential :     1340
  | Number of spin channels           :        1

------------------------------------------------------------
          Reading file control.in.
------------------------------------------------------------
  XC: Using PBEsol gradient-corrected functionals.
  Spin treatment: No spin polarisation.
  Scalar relativistic treatment of kinetic energy: on-site free-atom approximation to ZORA.
  Charge =   0.000000E+00: Neutral system requested explicitly.
  Occupation type: Gaussian broadening, width =   0.100000E-01 eV.
  Using pulay charge density mixing.
  Pulay mixing - number of memorized iterations:   10
  Charge density mixing - mixing parameter:     0.5000
  Convergence accuracy of self-consistent charge density:  0.1000E-04
  Convergence accuracy of sum of eigenvalues:  0.1000E-02
  Convergence accuracy of total energy:  0.1000E-05
  Convergence accuracy of forces:  0.1000E-03
  Maximum number of s.-c. iterations  :  1500
 
  Reading configuration options for species Al                  .
  | Found nuclear charge :  13.0000
  | Found atomic mass :    26.9815386000000      amu
  | Found l_max for Hartree potential  :   4
  | Found cutoff potl. onset [A], width [A], scale factor :    3.50000    1.50000    1.00000
  | Threshold for basis-dependent cutoff potential is   0.100000E-03
  | Found data for basic radial integration grid :    41 points, outermost radius =    5.000 A
  | Found multiplier for basic radial grid :   1
  | Found angular grid specification: user-specified.
  | Specified grid contains     4 separate shells.
  | Check grid settings after all constraints further below.
  | Found free-atom valence shell :  3 s   2.000
  | Found free-atom valence shell :  3 p   1.000
  | Found free-ion valence shell :  3 s   1.000
  | Found free-ion valence shell :  2 p   6.000
  | Found ionic basis function :  3 d , default cutoff radius.
  | Found ionic basis function :  3 p , default cutoff radius.
  | Found ionic basis function :  3 s , default cutoff radius.
  Species Al                  : Missing cutoff potential type.
  Defaulting to exp(1/x)/(1-x)^2 type cutoff potential.
  Species Al: No 'logarithmic' tag. Using default grid for free atom:
  | Default logarithmic grid data [bohr] : 0.1000E-03 0.1000E+03 0.1012E+01
  | Will include ionic basis functions of  2.0-fold positive Al                   ion.
  Species Al: On-site basis accuracy parameter (for Gram-Schmidt orthonormalisation) not specified.
  Using default value basis_acc =  0.1000000E-03.
  Species Al                  : Using default innermost maximum threshold i_radial=  2 for radial functions.
  Species Al                  : Default cutoff onset for free atom density etc. : 0.35000000E+01 AA.
  Species Al                  : Basic radial grid will be enhanced according to radial_multiplier =   1, to contain    41 grid points.
 
  Reading configuration options for species F                   .
  | Found nuclear charge :   9.0000
  | Found atomic mass :    18.9984032000000      amu
  | Found l_max for Hartree potential  :   4
  | Found cutoff potl. onset [A], width [A], scale factor :    3.50000    1.50000    1.00000
  | Threshold for basis-dependent cutoff potential is   0.100000E-03
  | Found data for basic radial integration grid :    37 points, outermost radius =    5.000 A
  | Found multiplier for basic radial grid :   1
  | Found angular grid specification: user-specified.
  | Specified grid contains     4 separate shells.
  | Check grid settings after all constraints further below.
  | Found free-atom valence shell :  2 s   2.000
  | Found free-atom valence shell :  2 p   5.000
  | Found free-ion valence shell :  2 s   1.000
  | Found free-ion valence shell :  2 p   4.000
  | Found hydrogenic basis function :  2 p   1.700
  | Found hydrogenic basis function :  3 d   7.400
  | Found hydrogenic basis function :  3 s   6.800
  Species F                   : Missing cutoff potential type.
  Defaulting to exp(1/x)/(1-x)^2 type cutoff potential.
  Species F : No 'logarithmic' tag. Using default grid for free atom:
  | Default logarithmic grid data [bohr] : 0.1000E-03 0.1000E+03 0.1012E+01
  Species F : On-site basis accuracy parameter (for Gram-Schmidt orthonormalisation) not specified.
  Using default value basis_acc =  0.1000000E-03.
  Species F                   : Using default innermost maximum threshold i_radial=  2 for radial functions.
  Species F                   : Default cutoff onset for free atom density etc. : 0.35000000E+01 AA.
  Species F                   : Basic radial grid will be enhanced according to radial_multiplier =   1, to contain    37 grid points.
 
  Finished reading input file 'control.in'.
 
------------------------------------------------------------


------------------------------------------------------------
          Reading geometry description geometry.in.
------------------------------------------------------------
  | The smallest distance between any two atoms is         1.81877057 AA.
  | The first atom of this pair is atom number                      1 .
  | The second atom of this pair is atom number                    10 .
  Input structure read successfully.
  The structure contains       12 atoms,  and a total of        120.000 electrons.

  Input geometry:
  | No unit cell requested.
  | Atomic structure:
  |       Atom                x [A]            y [A]            z [A]
  |    1: Species Al            0.38015600       -0.59892308        1.74486092
  |    2: Species Al            2.33276256       -1.78045745       -0.53834149
  |    3: Species Al           -0.91506178       -1.83919694       -0.97888334
  |    4: Species F             3.36203791       -0.31921559       -0.94802240
  |    5: Species F            -1.89253365       -0.74385989       -2.07628182
  |    6: Species F             2.87914299       -3.52329928       -0.72847179
  |    7: Species F            -1.15647557       -3.64955679       -0.80171067
  |    8: Species F             1.77921920       -1.71205293        1.23877980
  |    9: Species F             0.80702216       -1.50881128       -1.49288486
  |   10: Species F            -0.00693705       -1.17384944        3.42639148
  |   11: Species F             0.74755838        1.13953957        1.24830867
  |   12: Species F            -1.07316307       -1.15755652        0.73308761

 
  Finished reading input file 'control.in'.
 

------------------------------------------------------------
          Reading geometry description geometry.in.
------------------------------------------------------------
 
  Consistency checks for stacksize environment parameter are next.
 
  | Maximum stacksize for task 0: unlimited
  | Maximum stacksize for task 1: unlimited
  | Maximum stacksize for task 2: unlimited
  | Maximum stacksize for task 3: unlimited
  | Maximum stacksize for task 4: unlimited
  | Maximum stacksize for task 5: unlimited
  | Maximum stacksize for task 6: unlimited
  | Maximum stacksize for task 7: unlimited
  | Maximum stacksize for task 8: unlimited
  | Maximum stacksize for task 9: unlimited
  | Maximum stacksize for task 10: unlimited
  | Maximum stacksize for task 11: unlimited
  | Maximum stacksize for task 12: unlimited
  | Maximum stacksize for task 13: unlimited
  | Maximum stacksize for task 14: unlimited
  | Maximum stacksize for task 15: unlimited
  | Maximum stacksize for task 16: unlimited
  | Maximum stacksize for task 17: unlimited
  | Maximum stacksize for task 18: unlimited
  | Maximum stacksize for task 19: unlimited
  | Maximum stacksize for task 20: unlimited
  | Maximum stacksize for task 21: unlimited
  | Maximum stacksize for task 22: unlimited
  | Maximum stacksize for task 23: unlimited
  | Current stacksize for task 0: unlimited
  | Current stacksize for task 1: unlimited
  | Current stacksize for task 2: unlimited
  | Current stacksize for task 3: unlimited
  | Current stacksize for task 4: unlimited
  | Current stacksize for task 5: unlimited
  | Current stacksize for task 6: unlimited
  | Current stacksize for task 7: unlimited
  | Current stacksize for task 8: unlimited
  | Current stacksize for task 9: unlimited
  | Current stacksize for task 10: unlimited
  | Current stacksize for task 11: unlimited
  | Current stacksize for task 12: unlimited
  | Current stacksize for task 13: unlimited
  | Current stacksize for task 14: unlimited
  | Current stacksize for task 15: unlimited
  | Current stacksize for task 16: unlimited
  | Current stacksize for task 17: unlimited
  | Current stacksize for task 18: unlimited
  | Current stacksize for task 19: unlimited
  | Current stacksize for task 20: unlimited
  | Current stacksize for task 21: unlimited
  | Current stacksize for task 22: unlimited
  | Current stacksize for task 23: unlimited
 
  Consistency checks for the contents of control.in are next.
 
  MPI_IN_PLACE appears to work with this MPI implementation.
  | Keeping use_mpi_in_place .true. (see manual).
  Target number of points in a grid batch is not set. Defaulting to  100
  Method for grid partitioning is not set. Defaulting to parallel hash+maxmin partitioning.
  Batch size limit is not set. Defaulting to    200
  By default, will store active basis functions for each batch.
  If in need of memory, prune_basis_once .false. can be used to disable this option.
  communication_type for Hartree potential was not specified.
  Defaulting to calc_hartree .
  Pulay mixer: Number of initial linear mixing iterations not set.
  Defaulting to    0 iterations.
  Work space size for distributed Hartree potential not set.
  Defaulting to   0.200000E+03 MB.
  Algorithm-dependent basis array size parameters:
  | n_max_pulay                         :       10
  Presetting      1001 iterations before the initial mixing cycle
  is restarted anyway using the sc_init_iter criterion / keyword.
  Presetting a factor      1.000 between actual scf density residual
  and density convergence criterion sc_accuracy_rho below which sc_init_iter
  takes no effect.
  Geometry relaxation not requested: no relaxation will be performed.
  Forces evaluation will include force correction term due to incomplete self-consistency (default).
  Handling of forces: Unphysical translation and rotation will be removed from forces.
  No accuracy limit for integral partition fn. given. Defaulting to  0.1000E-14.
  No threshold value for u(r) in integrations given. Defaulting to  0.1000E-05.
  No accuracy for occupation numbers given. Defaulting to  0.1000E-12.
  No threshold value for occupation numbers given. Defaulting to  0.0000E+00.
  No accuracy for fermi level given. Defaulting to  0.1000E-19.
  Maximum # of iterations to find E_F not set. Defaulting to  200.
  Preferred method for the eigenvalue solver ('KS_method') not specified in 'control.in'.
  Calling BLACS routine to test compilation state
  Since ScaLAPACK support is enabled, defaulting to ELPA (via ELSI).
  Will not use alltoall communication since running on < 1024 CPUs.
  Threshold for basis singularities not set.
  Default threshold for basis singularities:  0.1000E-04
  partition_type (choice of integration weights) for integrals was not specified.
  | Using a version of the partition function of Stratmann and coworkers ('stratmann_sparse').
  | At each grid point, the set of atoms used to build the partition table is smoothly restricted to
  | only those atoms whose free-atom density would be non-zero at that grid point.
  Partitioning for Hartree potential was not defined. Using partition_type for integrals.
  | Adjusted default value of keyword multip_moments_threshold to:       0.10000000E-11
  | This value may affect high angular momentum components of the Hartree potential in periodic systems.
  No q(lm)/r^(l+1) cutoff set for long-range Hartree potential.
  | Using default value of  0.100000E-09 .
  | Verify using the multipole_threshold keyword.
  Defaulting to new monopole extrapolation.
  Density update method: automatic selection selected.
  Charge integration errors on the 3D integration grid will be compensated
  by explicit normalization and distribution of residual charges.
  Use the "compensate_multipole_errors" flag to change this behaviour.
  Set 'collect_eigenvectors' to be '.true.' for use_density_matrix .false.
 
  Consistency checks for the contents of geometry.in are next.
 
  Number of empty states per atom not set in control.in - providing a guess from actual geometry.
  | Total number of empty states used during s.c.f. cycle:       36
  If you use a very high smearing, use empty_states (per atom!) in control.in to increase this value.

  Structure-dependent array size parameters: 
  | Maximum number of distinct radial functions  :       14
  | Maximum number of basis functions            :      180
  | Number of Kohn-Sham states (occupied + empty):       96
------------------------------------------------------------

------------------------------------------------------------
          Preparing all fixed parts of the calculation.
------------------------------------------------------------
  Determining machine precision:
    2.225073858507201E-308
  Setting up grids for atomic and cluster calculations.

  Creating wave function, potential, and density for free atoms.

  Species: Al

  List of occupied orbitals and eigenvalues:
    n    l              occ      energy [Ha]    energy [eV]
    1    0           2.0000       -55.621123     -1513.5278
    2    0           2.0000        -3.957030      -107.6763
    3    0           2.0000        -0.272233        -7.4078
    2    1           6.0000        -2.540949       -69.1427
    3    1           1.0000        -0.083300        -2.2667


  Species: F

  List of occupied orbitals and eigenvalues:
    n    l              occ      energy [Ha]    energy [eV]
    1    0           2.0000       -24.399611      -663.9472
    2    0           2.0000        -1.098702       -29.8972
    2    1           5.0000        -0.408210       -11.1080


  Adding cutoff potential to free-atom effective potential.
  Creating fixed part of basis set: Ionic, confined, hydrogenic.
 
  Al                   ion:

  List of free ionic orbitals and eigenvalues:
    n    l      energy [Ha]    energy [eV]
    1    0       -56.418846     -1535.2349
    2    0        -4.732717      -128.7838
    3    0        -0.872690       -23.7471
    2    1        -3.317230       -90.2664


  List of ionic basis orbitals and eigenvalues:
    n    l      energy [Ha]    energy [eV]    outer radius [A]
    3    2        -0.346815        -9.4373       4.594041
    3    1        -0.631870       -17.1940       4.538221
    3    0        -0.872657       -23.7462       4.538221

 
  F                    hydrogenic:
 
  List of hydrogenic basis orbitals: 
    n    l      effective z      eigenvalue [eV]  inner max. [A]     outer max. [A]     outer radius [A]   
    2    1         1.700000        -9.7616           1.243167           1.243167           4.598524
    3    2         7.400000       -82.7828           0.642437           0.642437           3.305741
    3    0         6.800000       -69.9026           0.057798           1.022307           3.781556
 
  Creating atomic-like basis functions for current effective potential.

  Species Al                  :

  List of atomic basis orbitals and eigenvalues:
    n    l      energy [Ha]    energy [eV]    outer radius [A]
    1    0       -55.621123     -1513.5278       0.850197
    2    0        -3.957030      -107.6763       3.144911
    3    0        -0.272233        -7.4078       4.594041
    2    1        -2.540949       -69.1427       3.731966
    3    1        -0.083300        -2.2667       4.594041


  Species F                   :

  List of atomic basis orbitals and eigenvalues:
    n    l      energy [Ha]    energy [eV]    outer radius [A]
    1    0       -24.399611      -663.9472       1.258458
    2    0        -1.098702       -29.8972       4.325857
    2    1        -0.408210       -11.1080       4.487453

  Assembling full basis from fixed parts.
  | Species Al :   atomic orbital   1 s accepted.
  | Species Al :   atomic orbital   2 s accepted.
  | Species Al :    ionic orbital   3 s accepted.
  | Species Al :   atomic orbital   3 s accepted.
  | Species Al :   atomic orbital   2 p accepted.
  | Species Al :    ionic orbital   3 p accepted.
  | Species Al :   atomic orbital   3 p accepted.
  | Species Al :    ionic orbital   3 d accepted.
  | Species F :   atomic orbital   1 s accepted.
  | Species F :    hydro orbital   3 s accepted.
  | Species F :   atomic orbital   2 s accepted.
  | Species F :   atomic orbital   2 p accepted.
  | Species F :    hydro orbital   2 p accepted.
  | Species F :    hydro orbital   3 d accepted.
 
  Basis size parameters after reduction:
  | Total number of radial functions:       14
  | Total number of basis functions :      180
 
  Per-task memory consumption for arrays in subroutine allocate_ext:
  |           4.807768MB.
  Testing on-site integration grid accuracy.
  |  Species  Function  <phi|h_atom|phi> (log., in eV)  <phi|h_atom|phi> (rad., in eV)
           1        1              -1513.5277717935              -1513.5271881332
           1        2               -107.6762691836               -107.6762662489
           1        3                 -6.9467474784                 -6.9471269649
           1        4                  5.5771951849                  5.4862107220 ***
           1        5                -69.1427313144                -69.1427312731
           1        6                 -1.5197375330                 -1.5230432022
           1        7                  6.8210948310                  6.5529872240 ***
           1        8                  4.3216540965                  4.2851170187 ***
           2        9               -663.9471986398               -663.9470363334
           2       10                 16.8514011578                 16.8512525338
           2       11                -28.4490593856                -28.4490661472
           2       12                -11.1080115307                -11.1080620173
           2       13                  7.1940182175                  7.1685154137
           2       14                 44.8544281765                 44.8543763625
 * Note: Onsite integrals marked "***" above are less accurate than
 * onsite_accuracy_threshold =    0.03000 eV. Usually, this is harmless.
 * When in doubt, tighten the "radial" and/or "radial_multiplier" flags to check.

  Preparing densities etc. for the partition functions (integrals / Hartree potential).

  Preparations completed.
  max(cpu_time)          :      0.184 s.
  Wall clock time (cpu1) :      0.184 s.
------------------------------------------------------------

------------------------------------------------------------
          Begin self-consistency loop: Initialization.

          Date     :  20220517, Time     :  112401.675
------------------------------------------------------------

  Initializing index lists of integration centers etc. from given atomic structure:
  | Number of centers in hartree potential         :        12
  | Number of centers in hartree multipole         :        12
  | Number of centers in electron density summation:        12
  | Number of centers in basis integrals           :        12
  | Number of centers in integrals                 :        12
  | Number of centers in hamiltonian               :        12
  * Using 24 tasks for Scalapack Eigenvalue solver.
  Detailed listing of tasks and assigned k-points:
  (for non-periodic systems, the "k-point" denotes an internal label only)
   Task     0 k-point     1 on node-k98i-010
   Task     1 k-point     1 on node-k98i-010
   Task     2 k-point     1 on node-k98i-010
   Task     3 k-point     1 on node-k98i-010
   Task     4 k-point     1 on node-k98i-010
   Task     5 k-point     1 on node-k98i-010
   Task     6 k-point     1 on node-k98i-010
   Task     7 k-point     1 on node-k98i-010
   Task     8 k-point     1 on node-k98i-010
   Task     9 k-point     1 on node-k98i-010
   Task    10 k-point     1 on node-k98i-010
   Task    11 k-point     1 on node-k98i-010
   Task    12 k-point     1 on node-k98i-010
   Task    13 k-point     1 on node-k98i-010
   Task    14 k-point     1 on node-k98i-010
   Task    15 k-point     1 on node-k98i-010
   Task    16 k-point     1 on node-k98i-010
   Task    17 k-point     1 on node-k98i-010
   Task    18 k-point     1 on node-k98i-010
   Task    19 k-point     1 on node-k98i-010
   Task    20 k-point     1 on node-k98i-010
   Task    21 k-point     1 on node-k98i-010
   Task    22 k-point     1 on node-k98i-010
   Task    23 k-point     1 on node-k98i-010
  Tasks:    24 split into      6 X      4 BLACS grid
  Calculating block size based on n_basis =          180  max_nprow =            6  max_npcol =            4
  ScaLAPACK block size set to:           16
  Allocating        0.012 MB for ovlp
  Allocating        0.012 MB for ham
  Allocating        0.012 MB for eigenvec
  Required Scalapack workspace - INTEGER:            1  REAL:             1
  Partitioning the integration grid into batches with parallel hashing+maxmin method.
  | Number of batches:     1027
  | Maximal batch size:     189
  | Minimal batch size:      24
  | Average batch size:      89.503
  | Standard deviation of batch sizes:      27.502

  Integration load balanced across    24 MPI tasks.
  Work distribution over tasks is as follows:
  Task     0 has       3771 integration points.
  Task     1 has       3826 integration points.
  Task     2 has       3838 integration points.
  Task     3 has       3848 integration points.
  Task     4 has       3772 integration points.
  Task     5 has       3818 integration points.
  Task     6 has       3782 integration points.
  Task     7 has       3859 integration points.
  Task     8 has       3953 integration points.
  Task     9 has       3831 integration points.
  Task    10 has       3845 integration points.
  Task    11 has       3810 integration points.
  Task    12 has       3824 integration points.
  Task    13 has       3776 integration points.
  Task    14 has       3775 integration points.
  Task    15 has       3815 integration points.
  Task    16 has       3814 integration points.
  Task    17 has       3817 integration points.
  Task    18 has       3776 integration points.
  Task    19 has       3837 integration points.
  Task    20 has       3795 integration points.
  Task    21 has       3828 integration points.
  Task    22 has       3953 integration points.
  Task    23 has       3957 integration points.
  Initializing partition tables, free-atom densities, potentials, etc. across the integration grid (initialize_grid_storage).
  | initialize_grid_storage: Actual outermost partition radius vs. multipole_radius_free
  | (-- VB: in principle, multipole_radius_free should be larger, hence this output)
  | Species        1: Confinement radius =              4.999999999999999 AA, multipole_radius_free =              5.004487022111096 AA.
  | Species        1: outer_partition_radius set to              5.004487022111096 AA .
  | Species        2: Confinement radius =              4.999999999999999 AA, multipole_radius_free =              5.009370088163274 AA.
  | Species        2: outer_partition_radius set to              5.009370088163274 AA .
  | The sparse table of interatomic distances needs          1.64 kbyte instead of         1.15 kbyte of memory.
  | Using the partition_type stratmann_smoother will reduce your memory usage.
  | Net number of integration points:    91920
  | of which are non-zero points    :    85872
  Renormalizing the initial density to the exact electron count on the 3D integration grid.
  | Initial density: Formal number of electrons (from input files) :     120.0000000000
  | Integrated number of electrons on 3D grid     :     119.9998667466
  | Charge integration error                      :      -0.0001332534
  | Normalization factor for density and gradient :       1.0000011104
  Renormalizing the free-atom superposition density to the exact electron count on the 3D integration grid.
  | Formal number of electrons (from input files) :     120.0000000000
  | Integrated number of electrons on 3D grid     :     119.9998667466
  | Charge integration error                      :      -0.0001332534
  | Normalization factor for density and gradient :       1.0000011104
  Obtaining max. number of non-zero basis functions in each batch (get_n_compute_maxes).
  | Maximal number of non-zero basis functions:      166 in task     0
  | Maximal number of non-zero basis functions:      164 in task     1
  | Maximal number of non-zero basis functions:      165 in task     2
  | Maximal number of non-zero basis functions:      166 in task     3
  | Maximal number of non-zero basis functions:      171 in task     4
  | Maximal number of non-zero basis functions:      170 in task     5
  | Maximal number of non-zero basis functions:      171 in task     6
  | Maximal number of non-zero basis functions:      170 in task     7
  | Maximal number of non-zero basis functions:      158 in task     8
  | Maximal number of non-zero basis functions:      165 in task     9
  | Maximal number of non-zero basis functions:      163 in task    10
  | Maximal number of non-zero basis functions:      163 in task    11
  | Maximal number of non-zero basis functions:      171 in task    12
  | Maximal number of non-zero basis functions:      164 in task    13
  | Maximal number of non-zero basis functions:      170 in task    14
  | Maximal number of non-zero basis functions:      164 in task    15
  | Maximal number of non-zero basis functions:      170 in task    16
  | Maximal number of non-zero basis functions:      170 in task    17
  | Maximal number of non-zero basis functions:      166 in task    18
  | Maximal number of non-zero basis functions:      163 in task    19
  | Maximal number of non-zero basis functions:      164 in task    20
  | Maximal number of non-zero basis functions:      164 in task    21
  | Maximal number of non-zero basis functions:      161 in task    22
  | Maximal number of non-zero basis functions:      170 in task    23
  Selecting the method for density update.
  Loop over occupied states selected for charge density update.
  Allocating        0.132 MB for KS_eigenvector
  Integrating Hamiltonian matrix: batch-based integration.
  Time summed over all CPUs for integration: real work        0.719 s, elapsed        0.761 s
  Integrating overlap matrix.
  Time summed over all CPUs for integration: real work        0.277 s, elapsed        0.293 s
  Deallocating overlap matrix.

  Updating Kohn-Sham eigenvalues and eigenvectors using ELSI and the ELPA eigensolver.
  Overlap matrix is not singular
  | Lowest and highest eigenvalues :  0.4247E-02,  0.5131E+01
  Finished singularity check of overlap matrix
  | Time :     0.003 s
  Starting ELPA eigensolver
  Finished Cholesky decomposition
  | Time :     0.002 s
  Finished transformation to standard eigenproblem
  | Time :     0.001 s
  Finished solving standard eigenproblem
  | Time :     0.004 s
  Finished back-transformation of eigenvectors
  | Time :     0.000 s

  Obtaining occupation numbers and chemical potential using ELSI.
  | Chemical potential (Fermi level):    -7.82060837 eV
  Writing Kohn-Sham eigenvalues.

  State    Occupation    Eigenvalue [Ha]    Eigenvalue [eV]
      1       2.00000         -55.483151        -1509.77336
      2       2.00000         -55.483147        -1509.77324
      3       2.00000         -55.483019        -1509.76977
      4       2.00000         -24.377881         -663.35588
      5       2.00000         -24.371340         -663.17790
      6       2.00000         -24.369876         -663.13807
      7       2.00000         -24.340255         -662.33204
      8       2.00000         -24.338647         -662.28829
      9       2.00000         -24.338554         -662.28575
     10       2.00000         -24.338414         -662.28193
     11       2.00000         -24.338262         -662.27779
     12       2.00000         -24.337325         -662.25231
     13       2.00000          -3.948222         -107.43659
     14       2.00000          -3.948207         -107.43619
     15       2.00000          -3.947996         -107.43043
     16       2.00000          -2.540444          -69.12899
     17       2.00000          -2.540434          -69.12873
     18       2.00000          -2.540341          -69.12619
     19       2.00000          -2.540108          -69.11986
     20       2.00000          -2.540015          -69.11732
     21       2.00000          -2.539864          -69.11321
     22       2.00000          -2.539773          -69.11074
     23       2.00000          -2.539653          -69.10748
     24       2.00000          -2.539596          -69.10591
     25       2.00000          -1.203587          -32.75128
     26       2.00000          -1.194194          -32.49566
     27       2.00000          -1.190852          -32.40474
     28       2.00000          -1.148681          -31.25720
     29       2.00000          -1.147143          -31.21534
     30       2.00000          -1.146798          -31.20597
     31       2.00000          -1.145064          -31.15877
     32       2.00000          -1.144871          -31.15354
     33       2.00000          -1.144194          -31.13511
     34       2.00000          -0.576923          -15.69886
     35       2.00000          -0.567317          -15.43747
     36       2.00000          -0.546615          -14.87414
     37       2.00000          -0.535107          -14.56099
     38       2.00000          -0.511229          -13.91126
     39       2.00000          -0.502099          -13.66281
     40       2.00000          -0.498115          -13.55440
     41       2.00000          -0.497159          -13.52839
     42       2.00000          -0.493254          -13.42211
     43       2.00000          -0.491289          -13.36865
     44       2.00000          -0.490662          -13.35159
     45       2.00000          -0.488258          -13.28618
     46       2.00000          -0.479685          -13.05290
     47       2.00000          -0.477838          -13.00264
     48       2.00000          -0.475204          -12.93097
     49       2.00000          -0.454183          -12.35895
     50       2.00000          -0.453113          -12.32984
     51       2.00000          -0.452937          -12.32504
     52       2.00000          -0.450863          -12.26860
     53       2.00000          -0.450393          -12.25581
     54       2.00000          -0.448846          -12.21373
     55       2.00000          -0.447982          -12.19020
     56       2.00000          -0.447101          -12.16622
     57       2.00000          -0.446556          -12.15142
     58       2.00000          -0.446150          -12.14036
     59       2.00000          -0.445263          -12.11621
     60       2.00000          -0.444934          -12.10726
     61       0.00000          -0.142149           -3.86808
     62       0.00000          -0.085143           -2.31686
     63       0.00000          -0.084174           -2.29048
     64       0.00000          -0.027890           -0.75892
     65       0.00000          -0.012236           -0.33296
     66       0.00000          -0.004682           -0.12740
     67       0.00000          -0.002719           -0.07400
     68       0.00000           0.037511            1.02072
     69       0.00000           0.049148            1.33739
     70       0.00000           0.051771            1.40877
     71       0.00000           0.076234            2.07443
     72       0.00000           0.081114            2.20723
     73       0.00000           0.136783            3.72206
     74       0.00000           0.160788            4.37526
     75       0.00000           0.163081            4.43766
     76       0.00000           0.181011            4.92557
     77       0.00000           0.184476            5.01985
     78       0.00000           0.189412            5.15415
     79       0.00000           0.196062            5.33512
     80       0.00000           0.199875            5.43888
     81       0.00000           0.206443            5.61760
     82       0.00000           0.212168            5.77339
     83       0.00000           0.214808            5.84523
     84       0.00000           0.226534            6.16431
     85       0.00000           0.241610            6.57456
     86       0.00000           0.248697            6.76740
     87       0.00000           0.275308            7.49151
     88       0.00000           0.293070            7.97484
     89       0.00000           0.296370            8.06463
     90       0.00000           0.301781            8.21189
     91       0.00000           0.303382            8.25545
     92       0.00000           0.317312            8.63450
     93       0.00000           0.343222            9.33955
     94       0.00000           0.349264            9.50395
     95       0.00000           0.354498            9.64638
     96       0.00000           0.367093            9.98911

  Highest occupied state (VBM) at    -12.10726162 eV
  | Occupation number:      2.00000000

  Lowest unoccupied state (CBM) at    -3.86807796 eV
  | Occupation number:      0.00000000

  Overall HOMO-LUMO gap:      8.23918366 eV.
  Calculating total energy contributions from superposition of free atom densities.

  Total energy components:
  | Sum of eigenvalues            :        -887.57796040 Ha      -24152.22515416 eV
  | XC energy correction          :        -144.30050722 Ha       -3926.61658562 eV
  | XC potential correction       :         187.88587778 Ha        5112.63486248 eV
  | Free-atom electrostatic energy:        -781.38423884 Ha      -21262.54696528 eV
  | Hartree energy correction     :           0.00000000 Ha           0.00000000 eV
  | Entropy correction            :           0.00000000 Ha           0.00000000 eV
  | ---------------------------
  | Total energy                  :       -1625.37682868 Ha      -44228.75384258 eV
  | Total energy, T -> 0          :       -1625.37682868 Ha      -44228.75384258 eV  <-- do not rely on this value for anything but (periodic) metals
  | Electronic free energy        :       -1625.37682868 Ha      -44228.75384258 eV

  Derived energy quantities:
  | Kinetic energy                :        1627.51430165 Ha       44286.91744158 eV
  | Electrostatic energy          :       -3108.59062311 Ha      -84589.05469854 eV
  | Energy correction for multipole
  | error in Hartree potential    :           0.00000000 Ha           0.00000000 eV
  | Sum of eigenvalues per atom                           :       -2012.68542951 eV
  | Total energy (T->0) per atom                          :       -3685.72948688 eV  <-- do not rely on this value for anything but (periodic) metals
  | Electronic free energy per atom                       :       -3685.72948688 eV
  Initialize hartree_potential_storage
  Max. number of atoms included in rho_multipole:           12

  End scf initialization - timings             :  max(cpu_time)    wall_clock(cpu1)
  | Time for scf. initialization                :        0.116 s           0.117 s
  | Boundary condition initialization           :        0.000 s           0.000 s
  | Integration                                 :        0.045 s           0.046 s
  | Solution of K.-S. eqns.                     :        0.011 s           0.011 s
  | Grid partitioning                           :        0.036 s           0.036 s
  | Preloading free-atom quantities on grid     :        0.016 s           0.016 s
  | Free-atom superposition energy              :        0.005 s           0.005 s
  | Total energy evaluation                     :        0.000 s           0.000 s

  Partial memory accounting:
  | Current value for overall tracked memory usage:
  |   Minimum:        0.273 MB (on task 23)
  |   Maximum:        0.292 MB (on task  0)
  |   Average:        0.287 MB
  | Peak value for overall tracked memory usage:
  |   Minimum:        1.294 MB (on task  8 after allocating wave)
  |   Maximum:        1.383 MB (on task  4 after allocating wave)
  |   Average:        1.345 MB
  | Largest tracked array allocation so far:
  |   Minimum:        0.228 MB (H_times_psi on task  8)
  |   Maximum:        0.495 MB (all_coords on task 10)
  |   Average:        0.268 MB
  Note:  These values currently only include a subset of arrays which are explicitly tracked.
  The "true" memory usage will be greater.
------------------------------------------------------------
  Evaluating new KS density.
  Integration grid: deviation in total charge (<rho> - N_e) =   0.000000E+00

  Time for density update prior                :  max(cpu_time)    wall_clock(cpu1)
  | self-consistency iterative process          :        0.028 s           0.028 s

------------------------------------------------------------
          Begin self-consistency iteration #    1

  Date     :  20220517, Time     :  112401.821
------------------------------------------------------------
  Pulay mixing of updated and previous charge densities.
  Renormalizing the density to the exact electron count on the 3D integration grid.
  | Formal number of electrons (from input files) :     120.0000000000
  | Integrated number of electrons on 3D grid     :     120.0000000000
  | Charge integration error                      :       0.0000000000
  | Normalization factor for density and gradient :       1.0000000000

  Evaluating partitioned Hartree potential by multipole expansion.
  | Original multipole sum: apparent total charge =   0.205637E-13
  | Sum of charges compensated after spline to logarithmic grids =   0.106679E-03
  | Analytical far-field extrapolation by fixed multipoles:
  | Hartree multipole sum: apparent total charge =   0.218120E-13
  Summing up the Hartree potential.
  Time summed over all CPUs for potential: real work        0.386 s, elapsed        0.403 s
  | RMS charge density error from multipole expansion :   0.103788E-01

  Integrating Hamiltonian matrix: batch-based integration.
  Time summed over all CPUs for integration: real work        0.673 s, elapsed        0.698 s

  Updating Kohn-Sham eigenvalues and eigenvectors using ELSI and the ELPA eigensolver.
  Starting ELPA eigensolver
  Finished transformation to standard eigenproblem
  | Time :     0.000 s
  Finished solving standard eigenproblem
  | Time :     0.004 s
  Finished back-transformation of eigenvectors
  | Time :     0.000 s

  Obtaining occupation numbers and chemical potential using ELSI.
  | Chemical potential (Fermi level):    -7.77822142 eV
  Writing Kohn-Sham eigenvalues.

  State    Occupation    Eigenvalue [Ha]    Eigenvalue [eV]
      1       2.00000         -55.654850        -1514.44552
      2       2.00000         -55.652241        -1514.37452
      3       2.00000         -55.651842        -1514.36368
      4       2.00000         -24.284112         -660.80431
      5       2.00000         -24.273272         -660.50934
      6       2.00000         -24.269998         -660.42025
      7       2.00000         -24.079519         -655.23704
      8       2.00000         -24.075657         -655.13196
      9       2.00000         -24.070835         -655.00074
     10       2.00000         -24.070662         -654.99604
     11       2.00000         -24.069418         -654.96219
     12       2.00000         -24.068027         -654.92434
     13       2.00000          -4.094033         -111.40432
     14       2.00000          -4.091833         -111.34444
     15       2.00000          -4.091443         -111.33382
     16       2.00000          -2.687564          -73.13233
     17       2.00000          -2.687412          -73.12820
     18       2.00000          -2.685443          -73.07464
     19       2.00000          -2.685202          -73.06807
     20       2.00000          -2.685044          -73.06377
     21       2.00000          -2.685014          -73.06294
     22       2.00000          -2.684864          -73.05887
     23       2.00000          -2.682770          -73.00187
     24       2.00000          -2.682353          -72.99053
     25       2.00000          -1.205317          -32.79834
     26       2.00000          -1.190663          -32.39958
     27       2.00000          -1.186275          -32.28017
     28       2.00000          -1.024541          -27.87919
     29       2.00000          -1.022183          -27.81501
     30       2.00000          -1.018509          -27.71505
     31       2.00000          -1.017790          -27.69546
     32       2.00000          -1.014483          -27.60550
     33       2.00000          -1.014465          -27.60499
     34       2.00000          -0.590519          -16.06883
     35       2.00000          -0.576502          -15.68742
     36       2.00000          -0.552400          -15.03156
     37       2.00000          -0.546024          -14.85807
     38       2.00000          -0.506596          -13.78518
     39       2.00000          -0.494771          -13.46339
     40       2.00000          -0.490960          -13.35971
     41       2.00000          -0.485827          -13.22004
     42       2.00000          -0.477809          -13.00186
     43       2.00000          -0.407085          -11.07735
     44       2.00000          -0.396887          -10.79984
     45       2.00000          -0.395037          -10.74951
     46       2.00000          -0.371664          -10.11349
     47       2.00000          -0.368253          -10.02068
     48       2.00000          -0.366429           -9.97103
     49       2.00000          -0.341216           -9.28497
     50       2.00000          -0.337858           -9.19360
     51       2.00000          -0.337338           -9.17945
     52       2.00000          -0.333318           -9.07003
     53       2.00000          -0.330990           -9.00671
     54       2.00000          -0.329472           -8.96540
     55       2.00000          -0.326294           -8.87892
     56       2.00000          -0.324148           -8.82052
     57       2.00000          -0.323044           -8.79048
     58       2.00000          -0.322772           -8.78306
     59       2.00000          -0.320946           -8.73339
     60       2.00000          -0.318977           -8.67980
     61       0.00000          -0.162720           -4.42783
     62       0.00000          -0.091116           -2.47940
     63       0.00000          -0.088833           -2.41726
     64       0.00000          -0.051259           -1.39482
     65       0.00000          -0.034135           -0.92887
     66       0.00000          -0.020951           -0.57010
     67       0.00000          -0.018288           -0.49765
     68       0.00000           0.020092            0.54673
     69       0.00000           0.027335            0.74381
     70       0.00000           0.029994            0.81617
     71       0.00000           0.047276            1.28644
     72       0.00000           0.053403            1.45316
     73       0.00000           0.130900            3.56198
     74       0.00000           0.147743            4.02028
     75       0.00000           0.161557            4.39620
     76       0.00000           0.177726            4.83618
     77       0.00000           0.180515            4.91206
     78       0.00000           0.182551            4.96748
     79       0.00000           0.185900            5.05858
     80       0.00000           0.193918            5.27677
     81       0.00000           0.196545            5.34825
     82       0.00000           0.198458            5.40031
     83       0.00000           0.207269            5.64009
     84       0.00000           0.212997            5.79593
     85       0.00000           0.229493            6.24483
     86       0.00000           0.242082            6.58738
     87       0.00000           0.265347            7.22046
     88       0.00000           0.274759            7.47657
     89       0.00000           0.280190            7.62435
     90       0.00000           0.285020            7.75579
     91       0.00000           0.291933            7.94391
     92       0.00000           0.296856            8.07785
     93       0.00000           0.320520            8.72180
     94       0.00000           0.333450            9.07364
     95       0.00000           0.364369            9.91497
     96       0.00000           0.370705           10.08740

  Highest occupied state (VBM) at     -8.67979569 eV
  | Occupation number:      2.00000000

  Lowest unoccupied state (CBM) at    -4.42783111 eV
  | Occupation number:      0.00000000

  Overall HOMO-LUMO gap:      4.25196458 eV.

  Total energy components:
  | Sum of eigenvalues            :        -882.66154273 Ha      -24018.44262250 eV
  | XC energy correction          :        -145.67244850 Ha       -3963.94900708 eV
  | XC potential correction       :         189.68921047 Ha        5161.70604158 eV
  | Free-atom electrostatic energy:        -781.38423884 Ha      -21262.54696528 eV
  | Hartree energy correction     :          -5.12133329 Ha        -139.35856942 eV
  | Entropy correction            :           0.00000000 Ha           0.00000000 eV
  | ---------------------------
  | Total energy                  :       -1625.15035289 Ha      -44222.59112270 eV
  | Total energy, T -> 0          :       -1625.15035289 Ha      -44222.59112270 eV  <-- do not rely on this value for anything but (periodic) metals
  | Electronic free energy        :       -1625.15035289 Ha      -44222.59112270 eV

  Derived energy quantities:
  | Kinetic energy                :        1634.11327018 Ha       44466.48451146 eV
  | Electrostatic energy          :       -3113.59117457 Ha      -84725.12662708 eV
  | Energy correction for multipole
  | error in Hartree potential    :           0.04324754 Ha           1.17682544 eV
  | Sum of eigenvalues per atom                           :       -2001.53688521 eV
  | Total energy (T->0) per atom                          :       -3685.21592689 eV  <-- do not rely on this value for anything but (periodic) metals
  | Electronic free energy per atom                       :       -3685.21592689 eV
  Evaluating new KS density.
  Integration grid: deviation in total charge (<rho> - N_e) =   1.421085E-14

  Self-consistency convergence accuracy:
  | Change of charge density      :  0.6125E+00
  | Change of sum of eigenvalues  :  0.1338E+03 eV
  | Change of total energy        :  0.6163E+01 eV


------------------------------------------------------------
  End self-consistency iteration #     1       :  max(cpu_time)    wall_clock(cpu1)
  | Time for this iteration                     :        0.081 s           0.081 s
  | Charge density update                       :        0.027 s           0.027 s
  | Density mixing                              :        0.001 s           0.001 s
  | Hartree multipole update                    :        0.002 s           0.001 s
  | Hartree multipole summation                 :        0.017 s           0.017 s
  | Integration                                 :        0.030 s           0.030 s
  | Solution of K.-S. eqns.                     :        0.004 s           0.004 s
  | Total energy evaluation                     :        0.000 s           0.000 s

  Partial memory accounting:
  | Current value for overall tracked memory usage:
  |   Minimum:        0.273 MB (on task 23)
  |   Maximum:        0.292 MB (on task  0)
  |   Average:        0.287 MB
  | Peak value for overall tracked memory usage:
  |   Minimum:        1.294 MB (on task  8 after allocating wave)
  |   Maximum:        1.383 MB (on task  4 after allocating wave)
  |   Average:        1.345 MB
  | Largest tracked array allocation so far:
  |   Minimum:        0.683 MB (gradient_basis_wave on task  8)
  |   Maximum:        0.740 MB (gradient_basis_wave on task  4)
  |   Average:        0.719 MB
  Note:  These values currently only include a subset of arrays which are explicitly tracked.
  The "true" memory usage will be greater.
------------------------------------------------------------

------------------------------------------------------------
          Begin self-consistency iteration #    2

  Date     :  20220517, Time     :  112401.906
------------------------------------------------------------
  Pulay mixing of updated and previous charge densities.
  Renormalizing the density to the exact electron count on the 3D integration grid.
  | Formal number of electrons (from input files) :     120.0000000000
  | Integrated number of electrons on 3D grid     :     120.0000000000
  | Charge integration error                      :       0.0000000000
  | Normalization factor for density and gradient :       1.0000000000

  Evaluating partitioned Hartree potential by multipole expansion.
  | Original multipole sum: apparent total charge =   0.482523E-13
  | Sum of charges compensated after spline to logarithmic grids =   0.656505E-04
  | Analytical far-field extrapolation by fixed multipoles:
  | Hartree multipole sum: apparent total charge =   0.471608E-13
  Summing up the Hartree potential.
  Time summed over all CPUs for potential: real work        0.384 s, elapsed        0.402 s
  | RMS charge density error from multipole expansion :   0.122560E-01

  Integrating Hamiltonian matrix: batch-based integration.
  Time summed over all CPUs for integration: real work        0.673 s, elapsed        0.697 s

  Updating Kohn-Sham eigenvalues and eigenvectors using ELSI and the ELPA eigensolver.
  Starting ELPA eigensolver
  Finished transformation to standard eigenproblem
  | Time :     0.000 s
  Finished solving standard eigenproblem
  | Time :     0.003 s
  Finished back-transformation of eigenvectors
  | Time :     0.000 s

  Obtaining occupation numbers and chemical potential using ELSI.
  | Chemical potential (Fermi level):    -7.97742109 eV
  Highest occupied state (VBM) at     -9.89483688 eV
  | Occupation number:      2.00000000

  Lowest unoccupied state (CBM) at    -4.61343168 eV
  | Occupation number:      0.00000000

  Overall HOMO-LUMO gap:      5.28140520 eV.

  Checking to see if s.c.f. parameters should be adjusted.

  Total energy components:
  | Sum of eigenvalues            :        -885.86958341 Ha      -24105.73785108 eV
  | XC energy correction          :        -145.15782806 Ha       -3949.94547264 eV
  | XC potential correction       :         189.01210989 Ha        5143.28119736 eV
  | Free-atom electrostatic energy:        -781.38423884 Ha      -21262.54696528 eV
  | Hartree energy correction     :          -1.67751258 Ha         -45.64743968 eV
  | Entropy correction            :           0.00000000 Ha           0.00000000 eV
  | ---------------------------
  | Total energy                  :       -1625.07705300 Ha      -44220.59653133 eV
  | Total energy, T -> 0          :       -1625.07705300 Ha      -44220.59653133 eV  <-- do not rely on this value for anything but (periodic) metals
  | Electronic free energy        :       -1625.07705300 Ha      -44220.59653133 eV

  Derived energy quantities:
  | Kinetic energy                :        1630.14857274 Ha       44358.59960493 eV
  | Electrostatic energy          :       -3110.06779768 Ha      -84629.25066362 eV
  | Energy correction for multipole
  | error in Hartree potential    :           0.04695100 Ha           1.27760174 eV
  | Sum of eigenvalues per atom                           :       -2008.81148759 eV
  | Total energy (T->0) per atom                          :       -3685.04971094 eV  <-- do not rely on this value for anything but (periodic) metals
  | Electronic free energy per atom                       :       -3685.04971094 eV
  Evaluating new KS density.
  Integration grid: deviation in total charge (<rho> - N_e) =   1.421085E-14

  Self-consistency convergence accuracy:
  | Change of charge density      :  0.5088E+00
  | Change of sum of eigenvalues  : -0.8730E+02 eV
  | Change of total energy        :  0.1995E+01 eV


------------------------------------------------------------
  End self-consistency iteration #     2       :  max(cpu_time)    wall_clock(cpu1)
  | Time for this iteration                     :        0.084 s           0.082 s
  | Charge density update                       :        0.027 s           0.026 s
  | Density mixing                              :        0.005 s           0.003 s
  | Hartree multipole update                    :        0.001 s           0.002 s
  | Hartree multipole summation                 :        0.017 s           0.017 s
  | Integration                                 :        0.029 s           0.029 s
  | Solution of K.-S. eqns.                     :        0.004 s           0.004 s
  | Total energy evaluation                     :        0.000 s           0.001 s

  Partial memory accounting:
  | Current value for overall tracked memory usage:
  |   Minimum:        0.274 MB (on task 23)
  |   Maximum:        0.293 MB (on task  0)
  |   Average:        0.288 MB
  | Peak value for overall tracked memory usage:
  |   Minimum:        1.294 MB (on task  8 after allocating wave)
  |   Maximum:        1.383 MB (on task  4 after allocating wave)
  |   Average:        1.345 MB
  | Largest tracked array allocation so far:
  |   Minimum:        0.683 MB (gradient_basis_wave on task  8)
  |   Maximum:        0.740 MB (gradient_basis_wave on task  4)
  |   Average:        0.719 MB
  Note:  These values currently only include a subset of arrays which are explicitly tracked.
  The "true" memory usage will be greater.
------------------------------------------------------------

------------------------------------------------------------
          Begin self-consistency iteration #    3

  Date     :  20220517, Time     :  112401.994
------------------------------------------------------------
  Pulay mixing of updated and previous charge densities.
  Renormalizing the density to the exact electron count on the 3D integration grid.
  | Formal number of electrons (from input files) :     120.0000000000
  | Integrated number of electrons on 3D grid     :     120.0000000000
  | Charge integration error                      :      -0.0000000000
  | Normalization factor for density and gradient :       1.0000000000

  Evaluating partitioned Hartree potential by multipole expansion.
  | Original multipole sum: apparent total charge =  -0.104940E-13
  | Sum of charges compensated after spline to logarithmic grids =   0.839591E-04
  | Analytical far-field extrapolation by fixed multipoles:
  | Hartree multipole sum: apparent total charge =  -0.907964E-14
  Summing up the Hartree potential.
  Time summed over all CPUs for potential: real work        0.384 s, elapsed        0.402 s
  | RMS charge density error from multipole expansion :   0.168245E-01

  Integrating Hamiltonian matrix: batch-based integration.
  Time summed over all CPUs for integration: real work        0.673 s, elapsed        0.697 s

  Updating Kohn-Sham eigenvalues and eigenvectors using ELSI and the ELPA eigensolver.
  Starting ELPA eigensolver
  Finished transformation to standard eigenproblem
  | Time :     0.001 s
  Finished solving standard eigenproblem
  | Time :     0.003 s
  Finished back-transformation of eigenvectors
  | Time :     0.000 s

  Obtaining occupation numbers and chemical potential using ELSI.
  | Chemical potential (Fermi level):    -8.03458577 eV
  Highest occupied state (VBM) at     -9.67738946 eV
  | Occupation number:      2.00000000

  Lowest unoccupied state (CBM) at    -4.88749030 eV
  | Occupation number:      0.00000000

  Overall HOMO-LUMO gap:      4.78989917 eV.

  Total energy components:
  | Sum of eigenvalues            :        -887.03268753 Ha      -24137.38752440 eV
  | XC energy correction          :        -145.12400045 Ha       -3949.02497638 eV
  | XC potential correction       :         188.96629863 Ha        5142.03460948 eV
  | Free-atom electrostatic energy:        -781.38423884 Ha      -21262.54696528 eV
  | Hartree energy correction     :          -0.50143276 Ha         -13.64467959 eV
  | Entropy correction            :           0.00000000 Ha           0.00000000 eV
  | ---------------------------
  | Total energy                  :       -1625.07606095 Ha      -44220.56953617 eV
  | Total energy, T -> 0          :       -1625.07606095 Ha      -44220.56953617 eV  <-- do not rely on this value for anything but (periodic) metals
  | Electronic free energy        :       -1625.07606095 Ha      -44220.56953617 eV

  Derived energy quantities:
  | Kinetic energy                :        1628.47776525 Ha       44313.13461982 eV
  | Electrostatic energy          :       -3108.42982574 Ha      -84584.67917961 eV
  | Energy correction for multipole
  | error in Hartree potential    :           0.06180019 Ha           1.68166871 eV
  | Sum of eigenvalues per atom                           :       -2011.44896037 eV
  | Total energy (T->0) per atom                          :       -3685.04746135 eV  <-- do not rely on this value for anything but (periodic) metals
  | Electronic free energy per atom                       :       -3685.04746135 eV
  Evaluating new KS density.
  Integration grid: deviation in total charge (<rho> - N_e) =   4.263256E-14

  Self-consistency convergence accuracy:
  | Change of charge density      :  0.1288E+00
  | Change of sum of eigenvalues  : -0.3165E+02 eV
  | Change of total energy        :  0.2700E-01 eV


------------------------------------------------------------
  End self-consistency iteration #     3       :  max(cpu_time)    wall_clock(cpu1)
  | Time for this iteration                     :        0.083 s           0.081 s
  | Charge density update                       :        0.027 s           0.027 s
  | Density mixing                              :        0.004 s           0.002 s
  | Hartree multipole update                    :        0.001 s           0.001 s
  | Hartree multipole summation                 :        0.017 s           0.017 s
  | Integration                                 :        0.029 s           0.029 s
  | Solution of K.-S. eqns.                     :        0.004 s           0.005 s
  | Total energy evaluation                     :        0.000 s           0.000 s

  Partial memory accounting:
  | Current value for overall tracked memory usage:
  |   Minimum:        0.274 MB (on task 23)
  |   Maximum:        0.293 MB (on task  0)
  |   Average:        0.288 MB
  | Peak value for overall tracked memory usage:
  |   Minimum:        1.294 MB (on task  8 after allocating wave)
  |   Maximum:        1.383 MB (on task  4 after allocating wave)
  |   Average:        1.345 MB
  | Largest tracked array allocation so far:
  |   Minimum:        0.683 MB (gradient_basis_wave on task  8)
  |   Maximum:        0.740 MB (gradient_basis_wave on task  4)
  |   Average:        0.719 MB
  Note:  These values currently only include a subset of arrays which are explicitly tracked.
  The "true" memory usage will be greater.
------------------------------------------------------------

------------------------------------------------------------
          Begin self-consistency iteration #    4

  Date     :  20220517, Time     :  112402.081
------------------------------------------------------------
  Pulay mixing of updated and previous charge densities.
  Renormalizing the density to the exact electron count on the 3D integration grid.
  | Formal number of electrons (from input files) :     120.0000000000
  | Integrated number of electrons on 3D grid     :     120.0000000000
  | Charge integration error                      :       0.0000000000
  | Normalization factor for density and gradient :       1.0000000000

  Evaluating partitioned Hartree potential by multipole expansion.
  | Original multipole sum: apparent total charge =   0.254740E-13
  | Sum of charges compensated after spline to logarithmic grids =   0.930701E-04
  | Analytical far-field extrapolation by fixed multipoles:
  | Hartree multipole sum: apparent total charge =   0.250559E-13
  Summing up the Hartree potential.
  Time summed over all CPUs for potential: real work        0.384 s, elapsed        0.402 s
  | RMS charge density error from multipole expansion :   0.191613E-01

  Integrating Hamiltonian matrix: batch-based integration.
  Time summed over all CPUs for integration: real work        0.673 s, elapsed        0.697 s

  Updating Kohn-Sham eigenvalues and eigenvectors using ELSI and the ELPA eigensolver.
  Starting ELPA eigensolver
  Finished transformation to standard eigenproblem
  | Time :     0.001 s
  Finished solving standard eigenproblem
  | Time :     0.003 s
  Finished back-transformation of eigenvectors
  | Time :     0.000 s

  Obtaining occupation numbers and chemical potential using ELSI.
  | Chemical potential (Fermi level):    -8.03720882 eV
  Highest occupied state (VBM) at     -9.77697126 eV
  | Occupation number:      2.00000000

  Lowest unoccupied state (CBM) at    -4.84721125 eV
  | Occupation number:      0.00000000

  Overall HOMO-LUMO gap:      4.92976000 eV.

  Total energy components:
  | Sum of eigenvalues            :        -887.23110721 Ha      -24142.78679866 eV
  | XC energy correction          :        -145.10418018 Ha       -3948.48563954 eV
  | XC potential correction       :         188.93940525 Ha        5141.30280349 eV
  | Free-atom electrostatic energy:        -781.38423884 Ha      -21262.54696528 eV
  | Hartree energy correction     :          -0.29354035 Ha          -7.98763941 eV
  | Entropy correction            :           0.00000000 Ha           0.00000000 eV
  | ---------------------------
  | Total energy                  :       -1625.07366133 Ha      -44220.50423939 eV
  | Total energy, T -> 0          :       -1625.07366133 Ha      -44220.50423939 eV  <-- do not rely on this value for anything but (periodic) metals
  | Electronic free energy        :       -1625.07366133 Ha      -44220.50423939 eV

  Derived energy quantities:
  | Kinetic energy                :        1627.70839478 Ha       44292.19898424 eV
  | Electrostatic energy          :       -3107.67787593 Ha      -84564.21758410 eV
  | Energy correction for multipole
  | error in Hartree potential    :           0.06905856 Ha           1.87917902 eV
  | Sum of eigenvalues per atom                           :       -2011.89889989 eV
  | Total energy (T->0) per atom                          :       -3685.04201995 eV  <-- do not rely on this value for anything but (periodic) metals
  | Electronic free energy per atom                       :       -3685.04201995 eV
  Evaluating new KS density.
  Integration grid: deviation in total charge (<rho> - N_e) =   2.842171E-14

  Self-consistency convergence accuracy:
  | Change of charge density      :  0.8983E-01
  | Change of sum of eigenvalues  : -0.5399E+01 eV
  | Change of total energy        :  0.6530E-01 eV


------------------------------------------------------------
  End self-consistency iteration #     4       :  max(cpu_time)    wall_clock(cpu1)
  | Time for this iteration                     :        0.085 s           0.082 s
  | Charge density update                       :        0.028 s           0.028 s
  | Density mixing                              :        0.004 s           0.001 s
  | Hartree multipole update                    :        0.001 s           0.002 s
  | Hartree multipole summation                 :        0.017 s           0.017 s
  | Integration                                 :        0.029 s           0.029 s
  | Solution of K.-S. eqns.                     :        0.004 s           0.005 s
  | Total energy evaluation                     :        0.000 s           0.000 s

  Partial memory accounting:
  | Current value for overall tracked memory usage:
  |   Minimum:        0.274 MB (on task 23)
  |   Maximum:        0.293 MB (on task  0)
  |   Average:        0.288 MB
  | Peak value for overall tracked memory usage:
  |   Minimum:        1.294 MB (on task  8 after allocating wave)
  |   Maximum:        1.383 MB (on task  4 after allocating wave)
  |   Average:        1.345 MB
  | Largest tracked array allocation so far:
  |   Minimum:        0.683 MB (gradient_basis_wave on task  8)
  |   Maximum:        0.740 MB (gradient_basis_wave on task  4)
  |   Average:        0.719 MB
  Note:  These values currently only include a subset of arrays which are explicitly tracked.
  The "true" memory usage will be greater.
------------------------------------------------------------

------------------------------------------------------------
          Begin self-consistency iteration #    5

  Date     :  20220517, Time     :  112402.168
------------------------------------------------------------
  Pulay mixing of updated and previous charge densities.
  Renormalizing the density to the exact electron count on the 3D integration grid.
  | Formal number of electrons (from input files) :     120.0000000000
  | Integrated number of electrons on 3D grid     :     120.0000000000
  | Charge integration error                      :      -0.0000000000
  | Normalization factor for density and gradient :       1.0000000000

  Evaluating partitioned Hartree potential by multipole expansion.
  | Original multipole sum: apparent total charge =  -0.115117E-13
  | Sum of charges compensated after spline to logarithmic grids =   0.936043E-04
  | Analytical far-field extrapolation by fixed multipoles:
  | Hartree multipole sum: apparent total charge =  -0.127785E-13
  Summing up the Hartree potential.
  Time summed over all CPUs for potential: real work        0.384 s, elapsed        0.402 s
  | RMS charge density error from multipole expansion :   0.189208E-01

  Integrating Hamiltonian matrix: batch-based integration.
  Time summed over all CPUs for integration: real work        0.673 s, elapsed        0.698 s

  Updating Kohn-Sham eigenvalues and eigenvectors using ELSI and the ELPA eigensolver.
  Starting ELPA eigensolver
  Finished transformation to standard eigenproblem
  | Time :     0.001 s
  Finished solving standard eigenproblem
  | Time :     0.003 s
  Finished back-transformation of eigenvectors
  | Time :     0.000 s

  Obtaining occupation numbers and chemical potential using ELSI.
  | Chemical potential (Fermi level):    -8.01075237 eV
  Highest occupied state (VBM) at     -9.81464464 eV
  | Occupation number:      2.00000000

  Lowest unoccupied state (CBM) at    -4.77476327 eV
  | Occupation number:      0.00000000

  Overall HOMO-LUMO gap:      5.03988136 eV.

  Total energy components:
  | Sum of eigenvalues            :        -886.99987519 Ha      -24136.49465536 eV
  | XC energy correction          :        -145.09897440 Ha       -3948.34398302 eV
  | XC potential correction       :         188.93278665 Ha        5141.12270226 eV
  | Free-atom electrostatic energy:        -781.38423884 Ha      -21262.54696528 eV
  | Hartree energy correction     :          -0.52319076 Ha         -14.23674497 eV
  | Entropy correction            :           0.00000000 Ha           0.00000000 eV
[...]
   Total forces(   7)            :  0.629997E+00  0.343187E+01 -0.252240E+00
  atom #    8
   Hellmann-Feynman              : -0.880446E-01 -0.868744E+00  0.306399E+00
   Ionic forces                  :  0.000000E+00  0.000000E+00  0.000000E+00
   Multipole                     :  0.158018E+00 -0.183431E+00  0.219278E+00
   Hartree pot. SCF incomplete   :  0.562592E-07 -0.183081E-05  0.663674E-06
   Pulay + GGA                   : -0.861857E+00  0.172659E+01 -0.153320E+01
   ----------------------------------------------------------------
   Total forces(   8)            : -0.791884E+00  0.674418E+00 -0.100753E+01
  atom #    9
   Hellmann-Feynman              : -0.580891E-01  0.830199E+00 -0.212019E+00
   Ionic forces                  :  0.000000E+00  0.000000E+00  0.000000E+00
   Multipole                     :  0.393425E-01  0.950569E-01 -0.312381E+00
   Hartree pot. SCF incomplete   : -0.673923E-07  0.166365E-05 -0.250866E-06
   Pulay + GGA                   : -0.177269E+00 -0.108834E+01  0.144194E+01
   ----------------------------------------------------------------
   Total forces(   9)            : -0.196016E+00 -0.163086E+00  0.917541E+00
  atom #   10
   Hellmann-Feynman              : -0.713856E+00 -0.103278E+01  0.289692E+01
   Ionic forces                  :  0.000000E+00  0.000000E+00  0.000000E+00
   Multipole                     : -0.164696E+00 -0.277512E+00  0.617081E+00
   Hartree pot. SCF incomplete   : -0.499721E-06 -0.117436E-05  0.120481E-05
   Pulay + GGA                   :  0.158529E+01  0.238876E+01 -0.656541E+01
   ----------------------------------------------------------------
   Total forces(  10)            :  0.706737E+00  0.107846E+01 -0.305141E+01
  atom #   11
   Hellmann-Feynman              :  0.517244E+00  0.253984E+01 -0.943763E+00
   Ionic forces                  :  0.000000E+00  0.000000E+00  0.000000E+00
   Multipole                     :  0.152952E+00  0.683003E+00 -0.256278E+00
   Hartree pot. SCF incomplete   :  0.103813E-05 -0.640756E-06 -0.356983E-05
   Pulay + GGA                   : -0.131856E+01 -0.671873E+01  0.193685E+01
   ----------------------------------------------------------------
   Total forces(  11)            : -0.648360E+00 -0.349589E+01  0.736802E+00
  atom #   12
   Hellmann-Feynman              : -0.187509E+00 -0.184486E+00  0.200680E+00
   Ionic forces                  :  0.000000E+00  0.000000E+00  0.000000E+00
   Multipole                     : -0.292374E+00  0.375818E-01  0.139735E+00
   Hartree pot. SCF incomplete   : -0.220475E-05  0.467966E-06  0.494446E-06
   Pulay + GGA                   :  0.173687E+01  0.583417E-01 -0.840628E+00
   ----------------------------------------------------------------
   Total forces(  12)            :  0.125698E+01 -0.885615E-01 -0.500213E+00


  Self-consistency convergence accuracy:
  | Change of charge density      :  0.1806E-06
  | Change of sum of eigenvalues  : -0.1283E-04 eV
  | Change of total energy        :  0.1163E-08 eV
  | Change of forces              :  0.3816E-06 eV/A

  Writing Kohn-Sham eigenvalues.

  State    Occupation    Eigenvalue [Ha]    Eigenvalue [eV]
      1       2.00000         -55.637595        -1513.97599
      2       2.00000         -55.635417        -1513.91672
      3       2.00000         -55.633967        -1513.87726
      4       2.00000         -24.342851         -662.40269
      5       2.00000         -24.336734         -662.23622
      6       2.00000         -24.334828         -662.18437
      7       2.00000         -24.224599         -659.18487
      8       2.00000         -24.219540         -659.04720
      9       2.00000         -24.214568         -658.91193
     10       2.00000         -24.214566         -658.91186
     11       2.00000         -24.213505         -658.88298
     12       2.00000         -24.212743         -658.86225
     13       2.00000          -4.090674         -111.31291
     14       2.00000          -4.088879         -111.26405
     15       2.00000          -4.087409         -111.22405
     16       2.00000          -2.684207          -73.04099
     17       2.00000          -2.683361          -73.01798
     18       2.00000          -2.682535          -72.99548
     19       2.00000          -2.681517          -72.96780
     20       2.00000          -2.681137          -72.95746
     21       2.00000          -2.679977          -72.92590
     22       2.00000          -2.679010          -72.89958
     23       2.00000          -2.677106          -72.84777
     24       2.00000          -2.675628          -72.80755
     25       2.00000          -1.224385          -33.31722
     26       2.00000          -1.211367          -32.96298
     27       2.00000          -1.207476          -32.85709
     28       2.00000          -1.069042          -29.09010
     29       2.00000          -1.065518          -28.99423
     30       2.00000          -1.061721          -28.89090
     31       2.00000          -1.061177          -28.87609
     32       2.00000          -1.058253          -28.79652
     33       2.00000          -1.057770          -28.78338
     34       2.00000          -0.608403          -16.55549
     35       2.00000          -0.595641          -16.20822
     36       2.00000          -0.572820          -15.58724
     37       2.00000          -0.564345          -15.35660
     38       2.00000          -0.523989          -14.25846
     39       2.00000          -0.515339          -14.02309
     40       2.00000          -0.511837          -13.92780
     41       2.00000          -0.505551          -13.75675
     42       2.00000          -0.498004          -13.55137
     43       2.00000          -0.441865          -12.02376
     44       2.00000          -0.433865          -11.80607
     45       2.00000          -0.431318          -11.73675
     46       2.00000          -0.414072          -11.26748
     47       2.00000          -0.410245          -11.16333
     48       2.00000          -0.408086          -11.10459
     49       2.00000          -0.379858          -10.33646
     50       2.00000          -0.376728          -10.25128
     51       2.00000          -0.375689          -10.22303
     52       2.00000          -0.372399          -10.13349
     53       2.00000          -0.370007          -10.06841
     54       2.00000          -0.368618          -10.03060
     55       2.00000          -0.367140           -9.99039
     56       2.00000          -0.365358           -9.94191
     57       2.00000          -0.363899           -9.90221
     58       2.00000          -0.363223           -9.88380
     59       2.00000          -0.361977           -9.84989
     60       2.00000          -0.359923           -9.79400
     61       0.00000          -0.175565           -4.77737
     62       0.00000          -0.103784           -2.82411
     63       0.00000          -0.101185           -2.75337
     64       0.00000          -0.058348           -1.58772
     65       0.00000          -0.040124           -1.09182
     66       0.00000          -0.025991           -0.70726
     67       0.00000          -0.023167           -0.63042
     68       0.00000           0.016606            0.45186
     69       0.00000           0.022520            0.61279
     70       0.00000           0.024585            0.66899
     71       0.00000           0.041054            1.11714
     72       0.00000           0.047524            1.29319
     73       0.00000           0.122558            3.33496
     74       0.00000           0.142947            3.88977
     75       0.00000           0.155736            4.23778
     76       0.00000           0.170068            4.62778
     77       0.00000           0.173554            4.72264
     78       0.00000           0.178578            4.85936
     79       0.00000           0.180434            4.90985
     80       0.00000           0.185007            5.03430
     81       0.00000           0.189677            5.16137
     82       0.00000           0.192741            5.24476
     83       0.00000           0.200108            5.44521
     84       0.00000           0.205391            5.58897
     85       0.00000           0.222269            6.04824
     86       0.00000           0.234293            6.37543
     87       0.00000           0.258965            7.04680
     88       0.00000           0.268955            7.31865
     89       0.00000           0.275022            7.48374
     90       0.00000           0.279636            7.60928
     91       0.00000           0.286290            7.79035
     92       0.00000           0.292809            7.96773
     93       0.00000           0.315928            8.59685
     94       0.00000           0.326678            8.88935
     95       0.00000           0.356502            9.70091
     96       0.00000           0.361954            9.84927

  Highest occupied state (VBM) at     -9.79400231 eV
  | Occupation number:      2.00000000

  Lowest unoccupied state (CBM) at    -4.77736723 eV
  | Occupation number:      0.00000000

  Overall HOMO-LUMO gap:      5.01663508 eV.
  | Chemical Potential                          :    -8.00805421 eV

  Self-consistency cycle converged.


------------------------------------------------------------
  End self-consistency iteration #    14       :  max(cpu_time)    wall_clock(cpu1)
  | Time for this iteration                     :        0.296 s           0.296 s
  | Charge density & force component update     :        0.150 s           0.150 s
  | Density mixing                              :        0.005 s           0.003 s
  | Hartree multipole update                    :        0.001 s           0.001 s
  | Hartree multipole summation                 :        0.050 s           0.051 s
  | Hartree pot. SCF incomplete forces          :        0.033 s           0.033 s
  | Integration                                 :        0.035 s           0.035 s
  | Solution of K.-S. eqns.                     :        0.020 s           0.019 s
  | Total energy evaluation                     :        0.000 s           0.000 s

  Partial memory accounting:
  | Current value for overall tracked memory usage:
  |   Minimum:        0.274 MB (on task 23)
  |   Maximum:        0.293 MB (on task  0)
  |   Average:        0.289 MB
  | Peak value for overall tracked memory usage:
  |   Minimum:        2.831 MB (on task  8 after allocating hessian_basis_wave)
  |   Maximum:        3.018 MB (on task  4 after allocating hessian_basis_wave)
  |   Average:        2.945 MB
  | Largest tracked array allocation so far:
  |   Minimum:        1.367 MB (hessian_basis_wave on task  8)
  |   Maximum:        1.479 MB (hessian_basis_wave on task  4)
  |   Average:        1.438 MB
  Note:  These values currently only include a subset of arrays which are explicitly tracked.
  The "true" memory usage will be greater.
------------------------------------------------------------
  Removing unitary transformations (pure translations, rotations) from forces on atoms.
  Atomic forces before filtering:
  | Net force on center of mass :  -0.170414E-02 -0.169493E-02  0.492072E-02 eV/A
  | Net torque on center of mass:  -0.886786E-02  0.839894E-02 -0.974066E-03 eV
  Atomic forces after filtering:
  | Net force on center of mass :  -0.178406E-15 -0.144955E-14  0.892031E-16 eV/A
  | Net torque on center of mass:  -0.237201E-14 -0.188817E-15  0.283225E-15 eV

  Energy and forces in a compact form:
  | Total energy uncorrected      :         -0.442204992991177E+05 eV
  | Total energy corrected        :         -0.442204992991177E+05 eV  <-- do not rely on this value for anything but (periodic) metals
  | Electronic free energy        :         -0.442204992991177E+05 eV
  Total atomic forces (unitary forces cleaned) [eV/Ang]:
  |    1         -0.254946051547340E+00          0.186241795705626E+01          0.265546976008984E+01
  |    2          0.347530958528439E+01         -0.706730784668503E+00         -0.966917172253307E+00
  |    3         -0.288026640984352E+01         -0.111300896672682E+01         -0.184829740592524E+01
  |    4         -0.200628478447682E+01         -0.273913276042069E+01          0.876809885196731E+00
  |    5          0.184119361446375E+01         -0.205054384543312E+01          0.210179095655484E+01
  |    6         -0.113276177509593E+01          0.330968208329351E+01          0.340929813179576E+00
  |    7          0.630265516671104E+00          0.343217428081988E+01         -0.253321056029028E+00
  |    8         -0.791904989545072E+00          0.674339989559711E+00         -0.100782996071463E+01
  |    9         -0.195655479882688E+00         -0.162648540643900E+00          0.917139604750739E+00
  |   10          0.706408660278210E+00          0.107796687399796E+01         -0.305185846183791E+01
  |   11         -0.648387811200184E+00         -0.349596684766894E+01          0.736894360545257E+00
  |   12          0.125702992489410E+01         -0.885494391653653E-01         -0.500810323556855E+00

  ------------------------------------ 
  Start decomposition of the XC Energy 
  ------------------------------------ 
  X and C from original XC functional choice 
  Hartree-Fock Energy :          0.000000000 Ha              0.000000000 eV
  X Energy            :       -140.171028848 Ha          -3814.247761732 eV
  C Energy            :         -4.932785787 Ha           -134.227930697 eV
  Total XC Energy     :       -145.103814634 Ha          -3948.475692429 eV
  ------------------------------------ 
  LDA X and C from self-consistent density 
  X Energy LDA        :       -132.736336930 Ha          -3611.939501329 eV
  C Energy LDA        :         -8.821047417 Ha           -240.032912954 eV
  ------------------------------------ 
  End decomposition of the XC Energy 
  ------------------------------------ 

------------------------------------------------------------

------------------------------------------------------------------------------
  Final output of selected total energy values:

  The following output summarizes some interesting total energy values
  at the end of a run (AFTER all relaxation, molecular dynamics, etc.).

  | Total energy of the DFT / Hartree-Fock s.c.f. calculation      :         -44220.499299118 eV
  | Final zero-broadening corrected energy (caution - metals only) :         -44220.499299118 eV
  | For reference only, the value of 1 Hartree used in FHI-aims is :             27.211384500 eV

  Before relying on these values, please be sure to understand exactly which
  total energy value is referred to by a given number. Different objects may
  all carry the same name 'total energy'. Definitions:

  Total energy of the DFT / Hartree-Fock s.c.f. calculation:
  | Note that this energy does not include ANY quantities calculated after the
  | s.c.f. cycle, in particular not ANY RPA, MP2, etc. many-body perturbation terms.

  Final zero-broadening corrected energy:
  | For metallic systems only, a broadening of the occupation numbers at the Fermi
  | level can be extrapolated back to zero broadening by an electron-gas inspired
  | formula. For all systems that are not real metals, this value can be
  | meaningless and should be avoided.

------------------------------------------------------------------------------
  Methods described in the following list of references were used in this FHI-aims run.
  If you publish the results, please make sure to cite these reference if they apply.
  FHI-aims is an academic code, and for our developers (often, Ph.D. students
  and postdocs), scientific credit in the community is essential.
  Thank you for helping us!

  For any use of FHI-aims, please cite:

    Volker Blum, Ralf Gehrke, Felix Hanke, Paula Havu, Ville Havu,
    Xinguo Ren, Karsten Reuter, and Matthias Scheffler
    'Ab initio molecular simulations with numeric atom-centered orbitals'
    Computer Physics Communications 180, 2175-2196 (2009)
    http://dx.doi.org/10.1016/j.cpc.2009.06.022


  The ELSI infrastructure was used in your run to solve the Kohn-Sham electronic structure.
  Please check out http://elsi-interchange.org to learn more.
  If scalability is important for your project, please acknowledge ELSI by citing:

    V. W-z. Yu, F. Corsetti, A. Garcia, W. P. Huhn, M. Jacquelin, W. Jia,
    B. Lange, L. Lin, J. Lu, W. Mi, A. Seifitokaldani, A. Vazquez-Mayagoitia,
    C. Yang, H. Yang, and V. Blum
    'ELSI: A unified software interface for Kohn-Sham electronic structure solvers'
    Computer Physics Communications 222, 267-285 (2018).
    http://dx.doi.org/10.1016/j.cpc.2017.09.007


  For the real-space grid partitioning and parallelization used in this calculation, please cite:

    Ville Havu, Volker Blum, Paula Havu, and Matthias Scheffler,
    'Efficient O(N) integration for all-electron electronic structure calculation'
    'using numerically tabulated basis functions'
    Journal of Computational Physics 228, 8367-8379 (2009).
    http://dx.doi.org/10.1016/j.jcp.2009.08.008

  Of course, there are many other important community references, e.g., those cited in the
  above references. Our list is limited to references that describe implementations in the
  FHI-aims code. The reason is purely practical (length of this list) - please credit others as well.

------------------------------------------------------------
          Leaving FHI-aims.
          Date     :  20220517, Time     :  112403.615

          Computational steps:
          | Number of self-consistency cycles          :           14
          | Number of SCF (re)initializations          :            1

          Detailed time accounting                     :  max(cpu_time)    wall_clock(cpu1)
          | Total time                                  :        2.099 s           2.170 s
          | Preparation time                            :        0.184 s           0.184 s
          | Boundary condition initalization            :        0.000 s           0.000 s
          | Grid partitioning                           :        0.036 s           0.036 s
          | Preloading free-atom quantities on grid     :        0.016 s           0.016 s
          | Free-atom superposition energy              :        0.005 s           0.005 s
          | Total time for integrations                 :        0.480 s           0.481 s
          | Total time for solution of K.-S. equations  :        0.173 s           0.174 s
          | Total time for density & force components   :        0.652 s           0.652 s
          | Total time for mixing                       :        0.071 s           0.049 s
          | Total time for Hartree multipole update     :        0.029 s           0.029 s
          | Total time for Hartree multipole sum        :        0.316 s           0.316 s
          | Total time for total energy evaluation      :        0.003 s           0.005 s
          | Total time NSC force correction             :        0.066 s           0.066 s
          | Total time for scaled ZORA corrections      :        0.000 s           0.000 s

          Partial memory accounting:
          | Residual value for overall tracked memory usage across tasks:     0.000000 MB (should be 0.000000 MB)
          | Peak values for overall tracked memory usage:
          |   Minimum:        2.831 MB (on task  8 after allocating hessian_basis_wave)
          |   Maximum:        3.018 MB (on task  4 after allocating hessian_basis_wave)
          |   Average:        2.945 MB
          | Largest tracked array allocation:
          |   Minimum:        1.367 MB (hessian_basis_wave on task  8)
          |   Maximum:        1.479 MB (hessian_basis_wave on task  4)
          |   Average:        1.438 MB
          Note:  These values currently only include a subset of arrays which are explicitly tracked.
          The "true" memory usage will be greater.

          Have a nice day.
------------------------------------------------------------
