------------------------------------------------------------
          Invoking FHI-aims ...

          When using FHI-aims, please cite the following reference:

            Volker Blum, Ralf Gehrke, Felix Hanke, Paula Havu,
            Ville Havu, Xinguo Ren, Karsten Reuter, and Matthias Scheffler,
            'Ab Initio Molecular Simulations with Numeric Atom-Centered Orbitals',
            Computer Physics Communications 180, 2175-2196 (2009)

          In addition, many other developments in FHI-aims are likely important for
          your particular application. A partial list of references is given at the end of
          this file. Thank you for giving credit to the authors of these developments.

          For any questions about FHI-aims, please visit our slack channel at

            https://fhi-aims.slack.com

          and our main development and support site at

            https://aims-git.rz-berlin.mpg.de .

          The latter site, in particular, has a wiki to collect information, as well
          as an issue tracker to log discussions, suggest improvements, and report issues
          or bugs. https://aims-git.rz-berlin.mpg.de is also the main development site
          of the project and all new and updated code versions can be obtained there.
          Please send an email to aims-coordinators@fhi-berlin.mpg.de and we will add
          you to these sites. They are for you and everyone is welcome there.

------------------------------------------------------------



  Date     :  20220517, Time     :  115138.727
  Time zero on CPU 1             :   0.434430000000000E-01  s.
  Internal wall clock time zero  :           422020298.727  s.

  FHI-aims created a unique identifier for this run for later identification
  aims_uuid : 48477BC5-A399-4455-A246-D8DC2A9CEFD7

  Build configuration of the current instance of FHI-aims
  -------------------------------------------------------
  FHI-aims version      : 210914
  Commit number         : GITDIR-NOTFOUND
  CMake host system     : Linux-3.10.0-693.17.1.el7.x86_64
  CMake version         : 3.21.1
  Fortran compiler      : /shared/ucl/apps/intel/2018.Update3/impi/2018.3.222/intel64/bin/mpiifort (Intel) version 18.0.3.20180410
  Fortran compiler flags: -O3 -ip -fp-model precise
  C compiler            : /shared/ucl/apps/intel/2018.Update3/compilers_and_libraries_2018.3.222/linux/bin/intel64/icc (Intel) version 18.0.3.20180410
  C compiler flags      : -O3 -ip -fp-model precise -std=gnu99
  ELPA2 kernel          : AVX2
  Using MPI
  Using ScaLAPACK
  Using LibXC
  Using i-PI
  Using RLSY
  Linking against: /shared/ucl/apps/intel/2019.Update5/compilers_and_libraries_2019.5.281/linux/mkl/lib/intel64/libmkl_intel_lp64.so
                   /shared/ucl/apps/intel/2019.Update5/compilers_and_libraries_2019.5.281/linux/mkl/lib/intel64/libmkl_sequential.so
                   /shared/ucl/apps/intel/2019.Update5/compilers_and_libraries_2019.5.281/linux/mkl/lib/intel64/libmkl_core.so
                   /shared/ucl/apps/intel/2019.Update5/compilers_and_libraries_2019.5.281/linux/mkl/lib/intel64/libmkl_blacs_intelmpi_lp64.so
                   /shared/ucl/apps/intel/2019.Update5/compilers_and_libraries_2019.5.281/linux/mkl/lib/intel64/libmkl_scalapack_lp64.so

  Using       24 parallel tasks.
  Task        0 on host node-k98e-003 reporting.
  Task        1 on host node-k98e-003 reporting.
  Task        2 on host node-k98e-003 reporting.
  Task        3 on host node-k98e-003 reporting.
  Task        4 on host node-k98e-003 reporting.
  Task        5 on host node-k98e-003 reporting.
  Task        6 on host node-k98e-003 reporting.
  Task        7 on host node-k98e-003 reporting.
  Task        8 on host node-k98e-003 reporting.
  Task        9 on host node-k98e-003 reporting.
  Task       10 on host node-k98e-003 reporting.
  Task       11 on host node-k98e-003 reporting.
  Task       12 on host node-k98e-003 reporting.
  Task       13 on host node-k98e-003 reporting.
  Task       14 on host node-k98e-003 reporting.
  Task       15 on host node-k98e-003 reporting.
  Task       16 on host node-k98e-003 reporting.
  Task       17 on host node-k98e-003 reporting.
  Task       18 on host node-k98e-003 reporting.
  Task       19 on host node-k98e-003 reporting.
  Task       20 on host node-k98e-003 reporting.
  Task       21 on host node-k98e-003 reporting.
  Task       22 on host node-k98e-003 reporting.
  Task       23 on host node-k98e-003 reporting.

  Performing system and environment tests:
  | Environment variable OMP_NUM_THREADS correctly set to 1.
  | Checking for ScaLAPACK...
  | Testing pdtran()...
  | All pdtran() tests passed.

  Obtaining array dimensions for all initial allocations:
  
  -----------------------------------------------------------------------
  Parsing control.in (first pass over file, find array dimensions only).
  The contents of control.in will be repeated verbatim below
  unless switched off by setting 'verbatim_writeout .false.' .
  in the first line of control.in .
  -----------------------------------------------------------------------
  
  #########################################################################################  Physical model
  #########################################################################################
  xc                 pbesol
  spin               none
  relativistic       atomic_zora scalar
  charge             0.0
  #  SCF convergence
  occupation_type    gaussian 0.01
  mixer              pulay
  n_max_pulay        10
  charge_mix_param   0.5
  sc_accuracy_rho    1E-5
  sc_accuracy_eev    1E-3
  sc_accuracy_etot   1E-6
  sc_accuracy_forces 1E-4
  sc_iter_limit      1500
  #  Relaxation
  #relax_geometry   bfgs 1.e-3
  
  ################################################################################
  #
  #  FHI-aims code project
  #  VB, Fritz-Haber Institut, 2009
  #
  #  Suggested "light" defaults for Al atom (to be pasted into control.in file)
  #  Be sure to double-check any results obtained with these settings for post-processing,
  #  e.g., with the "tight" defaults and larger basis sets.
  #
  ################################################################################
    species        Al
  #     global species definitions
      nucleus             13
      mass                26.9815386
  #
      l_hartree           4
  #
      cut_pot             3.5          1.5  1.0
      basis_dep_cutoff    1e-4
  #
      radial_base         41 5.0
      radial_multiplier   1
      angular_grids       specified
        division   0.6594  110
        division   0.8170  194
        division   0.9059  302
  #      division   1.0363  434
  #      division   1.1443  590
  #      division   1.2621  770
  #      division   2.8177  974
  #      outer_grid   974
        outer_grid   302
  ################################################################################
  #
  #  Definition of "minimal" basis
  #
  ################################################################################
  #     valence basis states
      valence      3  s   2.
      valence      3  p   1.
  #     ion occupancy
      ion_occ      3  s   1.
      ion_occ      2  p   6.
  ################################################################################
  #
  #  Suggested additional basis functions. For production calculations,
  #  uncomment them one after another (the most important basis functions are
  #  listed first).
  #
  #  Constructed for dimers: 2.0 A, 2.5 A, 3.0 A, 3.75 A, 4.5 A
  #
  ################################################################################
  #  "First tier" - improvements: -199.47 meV to -10.63 meV
       ionic 3 d auto
       ionic 3 p auto
  #     hydro 4 f 4.7
       ionic 3 s auto
  #  "Second tier" - improvements: -5.35 meV to -1.57 meV
  #     hydro 5 g 7
  #     hydro 3 d 6
  #     hydro 2 s 11.6
  #     hydro 2 p 0.9
  #  "Third tier" - improvements: -0.63 meV to -0.20 meV
  #     hydro 5 f 7.6
  #     hydro 4 p 7.2
  #     hydro 4 s 3.7
  #     hydro 4 d 7.6
  #  "Fourth tier" - improvements: -0.17 meV to -0.08 meV
  #     hydro 4 d 13.6
  #     hydro 5 g 11.2
  #     hydro 4 d 0.9
  #     hydro 1 s 0.4
  #     hydro 4 p 0.1
  #     hydro 5 f 9.8
  #  Further basis functions that fell out of the optimization - noise level...
  #     hydro 4 p 5
  
  ################################################################################
  #
  #  FHI-aims code project
  #  VB, Fritz-Haber Institut, 2009
  #
  #  Suggested "light" defaults for F atom (to be pasted into control.in file)
  #  Be sure to double-check any results obtained with these settings for post-processing,
  #  e.g., with the "tight" defaults and larger basis sets.
  #
  ################################################################################
    species        F
  #     global species definitions
      nucleus             9
      mass                18.9984032
  #
      l_hartree           4
  #
      cut_pot             3.5  1.5  1.0
      basis_dep_cutoff    1e-4
  #
      radial_base         37 5.0
      radial_multiplier   1
      angular_grids specified
        division   0.4014  110
        division   0.5291  194
        division   0.6019  302
  #      division   0.6814  434
  #      division   0.7989  590
  #      division   0.8965  770
  #      division   1.3427  974
  #      outer_grid   974
        outer_grid   302
  ################################################################################
  #
  #  Definition of "minimal" basis
  #
  ################################################################################
  #     valence basis states
      valence      2  s   2.
      valence      2  p   5.
  #     ion occupancy
      ion_occ      2  s   1.
      ion_occ      2  p   4.
  ################################################################################
  #
  #  Suggested additional basis functions. For production calculations,
  #  uncomment them one after another (the most important basis functions are
  #  listed first).
  #
  #  Constructed for dimers: 1.2 A, 1.418 A, 1.75 A, 2.25 A, 3.25 A
  #
  ################################################################################
  #  "First tier" - improvements: -149.44 meV to -45.88 meV
       hydro 2 p 1.7
       hydro 3 d 7.4
       hydro 3 s 6.8
  #  "Second tier" - improvements: -12.96 meV to -1.56 meV
  #     hydro 4 f 11.2
  #     ionic 2 p auto
  #     hydro 1 s 0.75
  #     hydro 4 d 8.8
  #     hydro 5 g 16.8
  #  "Third tier" - improvements: -0.58 meV to -0.05 meV
  #     hydro 3 p 6.2
  #     hydro 3 s 3.2
  #     hydro 4 f 9.6
  #     hydro 3 s 19.6
  #     hydro 4 d 8.6
  #     hydro 5 g 14.4
  # Further basis functions: -0.05 meV and below
  #     hydro 3 p 4.2
  
  -----------------------------------------------------------------------
  Completed first pass over input file control.in .
  -----------------------------------------------------------------------
  
  
  -----------------------------------------------------------------------
  Parsing geometry.in (first pass over file, find array dimensions only).
  The contents of geometry.in will be repeated verbatim below
  unless switched off by setting 'verbatim_writeout .false.' .
  in the first line of geometry.in .
  -----------------------------------------------------------------------
  
  atom -0.371745238 1.029316360 -1.940456336 Al
  atom -0.665928981 1.033119691 1.592523801 Al
  atom -2.935043703 0.477315678 -1.836841209 Al
  atom -3.496338255 0.324171336 -3.506179761 F
  atom -1.602038558 -0.771161304 -1.853494938 F
  atom -2.236210693 2.163208589 -1.909460761 F
  atom -2.106141377 0.699132255 0.400652509 F
  atom 0.951760416 1.344550097 -0.409483975 F
  atom -0.273748981 2.888958404 2.035478971 F
  atom 0.453875208 -0.477832071 2.099688558 F
  atom -4.198332567 0.226591326 -0.667869713 F
  atom 0.918349419 1.280498103 -3.389254844 F
  
  -----------------------------------------------------------------------
  Completed first pass over input file geometry.in .
  -----------------------------------------------------------------------
  

  Basic array size parameters:
  | Number of species                 :        2
  | Number of atoms                   :       12
  | Max. basis fn. angular momentum   :        2
  | Max. atomic/ionic basis occupied n:        3
  | Max. number of basis fn. types    :        3
  | Max. radial fns per species/type  :        5
  | Max. logarithmic grid size        :     1340
  | Max. radial integration grid size :       41
  | Max. angular integration grid size:      302
  | Max. angular grid division number :        8
  | Radial grid for Hartree potential :     1340
  | Number of spin channels           :        1

------------------------------------------------------------
          Reading file control.in.
------------------------------------------------------------
  XC: Using PBEsol gradient-corrected functionals.
  Spin treatment: No spin polarisation.
  Scalar relativistic treatment of kinetic energy: on-site free-atom approximation to ZORA.
  Charge =   0.000000E+00: Neutral system requested explicitly.
  Occupation type: Gaussian broadening, width =   0.100000E-01 eV.
  Using pulay charge density mixing.
  Pulay mixing - number of memorized iterations:   10
  Charge density mixing - mixing parameter:     0.5000
  Convergence accuracy of self-consistent charge density:  0.1000E-04
  Convergence accuracy of sum of eigenvalues:  0.1000E-02
  Convergence accuracy of total energy:  0.1000E-05
  Convergence accuracy of forces:  0.1000E-03
  Maximum number of s.-c. iterations  :  1500
 
  Reading configuration options for species Al                  .
  | Found nuclear charge :  13.0000
  | Found atomic mass :    26.9815386000000      amu
  | Found l_max for Hartree potential  :   4
  | Found cutoff potl. onset [A], width [A], scale factor :    3.50000    1.50000    1.00000
  | Threshold for basis-dependent cutoff potential is   0.100000E-03
  | Found data for basic radial integration grid :    41 points, outermost radius =    5.000 A
  | Found multiplier for basic radial grid :   1
  | Found angular grid specification: user-specified.
  | Specified grid contains     4 separate shells.
  | Check grid settings after all constraints further below.
  | Found free-atom valence shell :  3 s   2.000
  | Found free-atom valence shell :  3 p   1.000
  | Found free-ion valence shell :  3 s   1.000
  | Found free-ion valence shell :  2 p   6.000
  | Found ionic basis function :  3 d , default cutoff radius.
  | Found ionic basis function :  3 p , default cutoff radius.
  | Found ionic basis function :  3 s , default cutoff radius.
  Species Al                  : Missing cutoff potential type.
  Defaulting to exp(1/x)/(1-x)^2 type cutoff potential.
  Species Al: No 'logarithmic' tag. Using default grid for free atom:
  | Default logarithmic grid data [bohr] : 0.1000E-03 0.1000E+03 0.1012E+01
  | Will include ionic basis functions of  2.0-fold positive Al                   ion.
  Species Al: On-site basis accuracy parameter (for Gram-Schmidt orthonormalisation) not specified.
  Using default value basis_acc =  0.1000000E-03.
  Species Al                  : Using default innermost maximum threshold i_radial=  2 for radial functions.
  Species Al                  : Default cutoff onset for free atom density etc. : 0.35000000E+01 AA.
  Species Al                  : Basic radial grid will be enhanced according to radial_multiplier =   1, to contain    41 grid points.
 
  Reading configuration options for species F                   .
  | Found nuclear charge :   9.0000
  | Found atomic mass :    18.9984032000000      amu
  | Found l_max for Hartree potential  :   4
  | Found cutoff potl. onset [A], width [A], scale factor :    3.50000    1.50000    1.00000
  | Threshold for basis-dependent cutoff potential is   0.100000E-03
  | Found data for basic radial integration grid :    37 points, outermost radius =    5.000 A
  | Found multiplier for basic radial grid :   1
  | Found angular grid specification: user-specified.
  | Specified grid contains     4 separate shells.
  | Check grid settings after all constraints further below.
  | Found free-atom valence shell :  2 s   2.000
  | Found free-atom valence shell :  2 p   5.000
  | Found free-ion valence shell :  2 s   1.000
  | Found free-ion valence shell :  2 p   4.000
  | Found hydrogenic basis function :  2 p   1.700
  | Found hydrogenic basis function :  3 d   7.400
  | Found hydrogenic basis function :  3 s   6.800
  Species F                   : Missing cutoff potential type.
  Defaulting to exp(1/x)/(1-x)^2 type cutoff potential.
  Species F : No 'logarithmic' tag. Using default grid for free atom:
  | Default logarithmic grid data [bohr] : 0.1000E-03 0.1000E+03 0.1012E+01
  Species F : On-site basis accuracy parameter (for Gram-Schmidt orthonormalisation) not specified.
  Using default value basis_acc =  0.1000000E-03.
  Species F                   : Using default innermost maximum threshold i_radial=  2 for radial functions.
  Species F                   : Default cutoff onset for free atom density etc. : 0.35000000E+01 AA.
  Species F                   : Basic radial grid will be enhanced according to radial_multiplier =   1, to contain    37 grid points.
 
  Finished reading input file 'control.in'.
 
------------------------------------------------------------


------------------------------------------------------------
          Reading geometry description geometry.in.
------------------------------------------------------------
  | The smallest distance between any two atoms is         1.73932625 AA.
  | The first atom of this pair is atom number                      3 .
  | The second atom of this pair is atom number                    11 .
  Input structure read successfully.
  The structure contains       12 atoms,  and a total of        120.000 electrons.

  Input geometry:
  | No unit cell requested.
  | Atomic structure:
  |       Atom                x [A]            y [A]            z [A]
  |    1: Species Al           -0.37174524        1.02931636       -1.94045634
  |    2: Species Al           -0.66592898        1.03311969        1.59252380
  |    3: Species Al           -2.93504370        0.47731568       -1.83684121
  |    4: Species F            -3.49633825        0.32417134       -3.50617976
  |    5: Species F            -1.60203856       -0.77116130       -1.85349494
  |    6: Species F            -2.23621069        2.16320859       -1.90946076
  |    7: Species F            -2.10614138        0.69913225        0.40065251
  |    8: Species F             0.95176042        1.34455010       -0.40948398
  |    9: Species F            -0.27374898        2.88895840        2.03547897
  |   10: Species F             0.45387521       -0.47783207        2.09968856
  |   11: Species F            -4.19833257        0.22659133       -0.66786971
  |   12: Species F             0.91834942        1.28049810       -3.38925484

 
  Finished reading input file 'control.in'.
 

------------------------------------------------------------
          Reading geometry description geometry.in.
------------------------------------------------------------
 
  Consistency checks for stacksize environment parameter are next.
 
  | Maximum stacksize for task 0: unlimited
  | Maximum stacksize for task 1: unlimited
  | Maximum stacksize for task 2: unlimited
  | Maximum stacksize for task 3: unlimited
  | Maximum stacksize for task 4: unlimited
  | Maximum stacksize for task 5: unlimited
  | Maximum stacksize for task 6: unlimited
  | Maximum stacksize for task 7: unlimited
  | Maximum stacksize for task 8: unlimited
  | Maximum stacksize for task 9: unlimited
  | Maximum stacksize for task 10: unlimited
  | Maximum stacksize for task 11: unlimited
  | Maximum stacksize for task 12: unlimited
  | Maximum stacksize for task 13: unlimited
  | Maximum stacksize for task 14: unlimited
  | Maximum stacksize for task 15: unlimited
  | Maximum stacksize for task 16: unlimited
  | Maximum stacksize for task 17: unlimited
  | Maximum stacksize for task 18: unlimited
  | Maximum stacksize for task 19: unlimited
  | Maximum stacksize for task 20: unlimited
  | Maximum stacksize for task 21: unlimited
  | Maximum stacksize for task 22: unlimited
  | Maximum stacksize for task 23: unlimited
  | Current stacksize for task 0: unlimited
  | Current stacksize for task 1: unlimited
  | Current stacksize for task 2: unlimited
  | Current stacksize for task 3: unlimited
  | Current stacksize for task 4: unlimited
  | Current stacksize for task 5: unlimited
  | Current stacksize for task 6: unlimited
  | Current stacksize for task 7: unlimited
  | Current stacksize for task 8: unlimited
  | Current stacksize for task 9: unlimited
  | Current stacksize for task 10: unlimited
  | Current stacksize for task 11: unlimited
  | Current stacksize for task 12: unlimited
  | Current stacksize for task 13: unlimited
  | Current stacksize for task 14: unlimited
  | Current stacksize for task 15: unlimited
  | Current stacksize for task 16: unlimited
  | Current stacksize for task 17: unlimited
  | Current stacksize for task 18: unlimited
  | Current stacksize for task 19: unlimited
  | Current stacksize for task 20: unlimited
  | Current stacksize for task 21: unlimited
  | Current stacksize for task 22: unlimited
  | Current stacksize for task 23: unlimited
 
  Consistency checks for the contents of control.in are next.
 
  MPI_IN_PLACE appears to work with this MPI implementation.
  | Keeping use_mpi_in_place .true. (see manual).
  Target number of points in a grid batch is not set. Defaulting to  100
  Method for grid partitioning is not set. Defaulting to parallel hash+maxmin partitioning.
  Batch size limit is not set. Defaulting to    200
  By default, will store active basis functions for each batch.
  If in need of memory, prune_basis_once .false. can be used to disable this option.
  communication_type for Hartree potential was not specified.
  Defaulting to calc_hartree .
  Pulay mixer: Number of initial linear mixing iterations not set.
  Defaulting to    0 iterations.
  Work space size for distributed Hartree potential not set.
  Defaulting to   0.200000E+03 MB.
  Algorithm-dependent basis array size parameters:
  | n_max_pulay                         :       10
  Presetting      1001 iterations before the initial mixing cycle
  is restarted anyway using the sc_init_iter criterion / keyword.
  Presetting a factor      1.000 between actual scf density residual
  and density convergence criterion sc_accuracy_rho below which sc_init_iter
  takes no effect.
  Geometry relaxation not requested: no relaxation will be performed.
  Forces evaluation will include force correction term due to incomplete self-consistency (default).
  Handling of forces: Unphysical translation and rotation will be removed from forces.
  No accuracy limit for integral partition fn. given. Defaulting to  0.1000E-14.
  No threshold value for u(r) in integrations given. Defaulting to  0.1000E-05.
  No accuracy for occupation numbers given. Defaulting to  0.1000E-12.
  No threshold value for occupation numbers given. Defaulting to  0.0000E+00.
  No accuracy for fermi level given. Defaulting to  0.1000E-19.
  Maximum # of iterations to find E_F not set. Defaulting to  200.
  Preferred method for the eigenvalue solver ('KS_method') not specified in 'control.in'.
  Calling BLACS routine to test compilation state
  Since ScaLAPACK support is enabled, defaulting to ELPA (via ELSI).
  Will not use alltoall communication since running on < 1024 CPUs.
  Threshold for basis singularities not set.
  Default threshold for basis singularities:  0.1000E-04
  partition_type (choice of integration weights) for integrals was not specified.
  | Using a version of the partition function of Stratmann and coworkers ('stratmann_sparse').
  | At each grid point, the set of atoms used to build the partition table is smoothly restricted to
  | only those atoms whose free-atom density would be non-zero at that grid point.
  Partitioning for Hartree potential was not defined. Using partition_type for integrals.
  | Adjusted default value of keyword multip_moments_threshold to:       0.10000000E-11
  | This value may affect high angular momentum components of the Hartree potential in periodic systems.
  No q(lm)/r^(l+1) cutoff set for long-range Hartree potential.
  | Using default value of  0.100000E-09 .
  | Verify using the multipole_threshold keyword.
  Defaulting to new monopole extrapolation.
  Density update method: automatic selection selected.
  Charge integration errors on the 3D integration grid will be compensated
  by explicit normalization and distribution of residual charges.
  Use the "compensate_multipole_errors" flag to change this behaviour.
  Set 'collect_eigenvectors' to be '.true.' for use_density_matrix .false.
 
  Consistency checks for the contents of geometry.in are next.
 
  Number of empty states per atom not set in control.in - providing a guess from actual geometry.
  | Total number of empty states used during s.c.f. cycle:       36
  If you use a very high smearing, use empty_states (per atom!) in control.in to increase this value.

  Structure-dependent array size parameters: 
  | Maximum number of distinct radial functions  :       14
  | Maximum number of basis functions            :      180
  | Number of Kohn-Sham states (occupied + empty):       96
------------------------------------------------------------

------------------------------------------------------------
          Preparing all fixed parts of the calculation.
------------------------------------------------------------
  Determining machine precision:
    2.225073858507201E-308
  Setting up grids for atomic and cluster calculations.

  Creating wave function, potential, and density for free atoms.

  Species: Al

  List of occupied orbitals and eigenvalues:
    n    l              occ      energy [Ha]    energy [eV]
    1    0           2.0000       -55.621123     -1513.5278
    2    0           2.0000        -3.957030      -107.6763
    3    0           2.0000        -0.272233        -7.4078
    2    1           6.0000        -2.540949       -69.1427
    3    1           1.0000        -0.083300        -2.2667


  Species: F

  List of occupied orbitals and eigenvalues:
    n    l              occ      energy [Ha]    energy [eV]
    1    0           2.0000       -24.399611      -663.9472
    2    0           2.0000        -1.098702       -29.8972
    2    1           5.0000        -0.408210       -11.1080


  Adding cutoff potential to free-atom effective potential.
  Creating fixed part of basis set: Ionic, confined, hydrogenic.
 
  Al                   ion:

  List of free ionic orbitals and eigenvalues:
    n    l      energy [Ha]    energy [eV]
    1    0       -56.418846     -1535.2349
    2    0        -4.732717      -128.7838
    3    0        -0.872690       -23.7471
    2    1        -3.317230       -90.2664


  List of ionic basis orbitals and eigenvalues:
    n    l      energy [Ha]    energy [eV]    outer radius [A]
    3    2        -0.346815        -9.4373       4.594041
    3    1        -0.631870       -17.1940       4.538221
    3    0        -0.872657       -23.7462       4.538221

 
  F                    hydrogenic:
 
  List of hydrogenic basis orbitals: 
    n    l      effective z      eigenvalue [eV]  inner max. [A]     outer max. [A]     outer radius [A]   
    2    1         1.700000        -9.7616           1.243167           1.243167           4.598524
    3    2         7.400000       -82.7828           0.642437           0.642437           3.305741
    3    0         6.800000       -69.9026           0.057798           1.022307           3.781556
 
  Creating atomic-like basis functions for current effective potential.

  Species Al                  :

  List of atomic basis orbitals and eigenvalues:
    n    l      energy [Ha]    energy [eV]    outer radius [A]
    1    0       -55.621123     -1513.5278       0.850197
    2    0        -3.957030      -107.6763       3.144911
    3    0        -0.272233        -7.4078       4.594041
    2    1        -2.540949       -69.1427       3.731966
    3    1        -0.083300        -2.2667       4.594041


  Species F                   :

  List of atomic basis orbitals and eigenvalues:
    n    l      energy [Ha]    energy [eV]    outer radius [A]
    1    0       -24.399611      -663.9472       1.258458
    2    0        -1.098702       -29.8972       4.325857
    2    1        -0.408210       -11.1080       4.487453

  Assembling full basis from fixed parts.
  | Species Al :   atomic orbital   1 s accepted.
  | Species Al :   atomic orbital   2 s accepted.
  | Species Al :    ionic orbital   3 s accepted.
  | Species Al :   atomic orbital   3 s accepted.
  | Species Al :   atomic orbital   2 p accepted.
  | Species Al :    ionic orbital   3 p accepted.
  | Species Al :   atomic orbital   3 p accepted.
  | Species Al :    ionic orbital   3 d accepted.
  | Species F :   atomic orbital   1 s accepted.
  | Species F :    hydro orbital   3 s accepted.
  | Species F :   atomic orbital   2 s accepted.
  | Species F :   atomic orbital   2 p accepted.
  | Species F :    hydro orbital   2 p accepted.
  | Species F :    hydro orbital   3 d accepted.
 
  Basis size parameters after reduction:
  | Total number of radial functions:       14
  | Total number of basis functions :      180
 
  Per-task memory consumption for arrays in subroutine allocate_ext:
  |           4.807768MB.
  Testing on-site integration grid accuracy.
  |  Species  Function  <phi|h_atom|phi> (log., in eV)  <phi|h_atom|phi> (rad., in eV)
           1        1              -1513.5277717935              -1513.5271881332
           1        2               -107.6762691836               -107.6762662489
           1        3                 -6.9467474784                 -6.9471269649
           1        4                  5.5771951849                  5.4862107220 ***
           1        5                -69.1427313144                -69.1427312731
           1        6                 -1.5197375330                 -1.5230432022
           1        7                  6.8210948310                  6.5529872240 ***
           1        8                  4.3216540965                  4.2851170187 ***
           2        9               -663.9471986398               -663.9470363334
           2       10                 16.8514011578                 16.8512525338
           2       11                -28.4490593856                -28.4490661472
           2       12                -11.1080115307                -11.1080620173
           2       13                  7.1940182175                  7.1685154137
           2       14                 44.8544281765                 44.8543763625
 * Note: Onsite integrals marked "***" above are less accurate than
 * onsite_accuracy_threshold =    0.03000 eV. Usually, this is harmless.
 * When in doubt, tighten the "radial" and/or "radial_multiplier" flags to check.

  Preparing densities etc. for the partition functions (integrals / Hartree potential).

  Preparations completed.
  max(cpu_time)          :      0.183 s.
  Wall clock time (cpu1) :      0.187 s.
------------------------------------------------------------

------------------------------------------------------------
          Begin self-consistency loop: Initialization.

          Date     :  20220517, Time     :  115138.968
------------------------------------------------------------

  Initializing index lists of integration centers etc. from given atomic structure:
  | Number of centers in hartree potential         :        12
  | Number of centers in hartree multipole         :        12
  | Number of centers in electron density summation:        12
  | Number of centers in basis integrals           :        12
  | Number of centers in integrals                 :        12
  | Number of centers in hamiltonian               :        12
  * Using 24 tasks for Scalapack Eigenvalue solver.
  Detailed listing of tasks and assigned k-points:
  (for non-periodic systems, the "k-point" denotes an internal label only)
   Task     0 k-point     1 on node-k98e-003
   Task     1 k-point     1 on node-k98e-003
   Task     2 k-point     1 on node-k98e-003
   Task     3 k-point     1 on node-k98e-003
   Task     4 k-point     1 on node-k98e-003
   Task     5 k-point     1 on node-k98e-003
   Task     6 k-point     1 on node-k98e-003
   Task     7 k-point     1 on node-k98e-003
   Task     8 k-point     1 on node-k98e-003
   Task     9 k-point     1 on node-k98e-003
   Task    10 k-point     1 on node-k98e-003
   Task    11 k-point     1 on node-k98e-003
   Task    12 k-point     1 on node-k98e-003
   Task    13 k-point     1 on node-k98e-003
   Task    14 k-point     1 on node-k98e-003
   Task    15 k-point     1 on node-k98e-003
   Task    16 k-point     1 on node-k98e-003
   Task    17 k-point     1 on node-k98e-003
   Task    18 k-point     1 on node-k98e-003
   Task    19 k-point     1 on node-k98e-003
   Task    20 k-point     1 on node-k98e-003
   Task    21 k-point     1 on node-k98e-003
   Task    22 k-point     1 on node-k98e-003
   Task    23 k-point     1 on node-k98e-003
  Tasks:    24 split into      6 X      4 BLACS grid
  Calculating block size based on n_basis =          180  max_nprow =            6  max_npcol =            4
  ScaLAPACK block size set to:           16
  Allocating        0.012 MB for ovlp
  Allocating        0.012 MB for ham
  Allocating        0.012 MB for eigenvec
  Required Scalapack workspace - INTEGER:            1  REAL:             1
  Partitioning the integration grid into batches with parallel hashing+maxmin method.
  | Number of batches:     1010
  | Maximal batch size:     189
  | Minimal batch size:      21
  | Average batch size:      91.010
  | Standard deviation of batch sizes:      31.499

  Integration load balanced across    24 MPI tasks.
  Work distribution over tasks is as follows:
  Task     0 has       3856 integration points.
  Task     1 has       3884 integration points.
  Task     2 has       3860 integration points.
  Task     3 has       3797 integration points.
  Task     4 has       3766 integration points.
  Task     5 has       3783 integration points.
  Task     6 has       3851 integration points.
  Task     7 has       3880 integration points.
  Task     8 has       3870 integration points.
  Task     9 has       3820 integration points.
  Task    10 has       3895 integration points.
  Task    11 has       3863 integration points.
  Task    12 has       3741 integration points.
  Task    13 has       3799 integration points.
  Task    14 has       3870 integration points.
  Task    15 has       3859 integration points.
  Task    16 has       3799 integration points.
  Task    17 has       3794 integration points.
  Task    18 has       3861 integration points.
  Task    19 has       3808 integration points.
  Task    20 has       3719 integration points.
  Task    21 has       3855 integration points.
  Task    22 has       3811 integration points.
  Task    23 has       3879 integration points.
  Initializing partition tables, free-atom densities, potentials, etc. across the integration grid (initialize_grid_storage).
  | initialize_grid_storage: Actual outermost partition radius vs. multipole_radius_free
  | (-- VB: in principle, multipole_radius_free should be larger, hence this output)
  | Species        1: Confinement radius =              4.999999999999999 AA, multipole_radius_free =              5.004487022111096 AA.
  | Species        1: outer_partition_radius set to              5.004487022111096 AA .
  | Species        2: Confinement radius =              4.999999999999999 AA, multipole_radius_free =              5.009370088163274 AA.
  | Species        2: outer_partition_radius set to              5.009370088163274 AA .
  | The sparse table of interatomic distances needs          1.64 kbyte instead of         1.15 kbyte of memory.
  | Using the partition_type stratmann_smoother will reduce your memory usage.
  | Net number of integration points:    91920
  | of which are non-zero points    :    86112
  Renormalizing the initial density to the exact electron count on the 3D integration grid.
  | Initial density: Formal number of electrons (from input files) :     120.0000000000
  | Integrated number of electrons on 3D grid     :     119.9999305813
  | Charge integration error                      :      -0.0000694187
  | Normalization factor for density and gradient :       1.0000005785
  Renormalizing the free-atom superposition density to the exact electron count on the 3D integration grid.
  | Formal number of electrons (from input files) :     120.0000000000
  | Integrated number of electrons on 3D grid     :     119.9999305813
  | Charge integration error                      :      -0.0000694187
  | Normalization factor for density and gradient :       1.0000005785
  Obtaining max. number of non-zero basis functions in each batch (get_n_compute_maxes).
  | Maximal number of non-zero basis functions:      170 in task     0
  | Maximal number of non-zero basis functions:      158 in task     1
  | Maximal number of non-zero basis functions:      159 in task     2
  | Maximal number of non-zero basis functions:      166 in task     3
  | Maximal number of non-zero basis functions:      165 in task     4
  | Maximal number of non-zero basis functions:      170 in task     5
  | Maximal number of non-zero basis functions:      159 in task     6
  | Maximal number of non-zero basis functions:      164 in task     7
  | Maximal number of non-zero basis functions:      165 in task     8
  | Maximal number of non-zero basis functions:      165 in task     9
  | Maximal number of non-zero basis functions:      163 in task    10
  | Maximal number of non-zero basis functions:      165 in task    11
  | Maximal number of non-zero basis functions:      163 in task    12
  | Maximal number of non-zero basis functions:      170 in task    13
  | Maximal number of non-zero basis functions:      164 in task    14
  | Maximal number of non-zero basis functions:      163 in task    15
  | Maximal number of non-zero basis functions:      165 in task    16
  | Maximal number of non-zero basis functions:      158 in task    17
  | Maximal number of non-zero basis functions:      158 in task    18
  | Maximal number of non-zero basis functions:      160 in task    19
  | Maximal number of non-zero basis functions:      161 in task    20
  | Maximal number of non-zero basis functions:      160 in task    21
  | Maximal number of non-zero basis functions:      165 in task    22
  | Maximal number of non-zero basis functions:      159 in task    23
  Selecting the method for density update.
  Loop over occupied states selected for charge density update.
  Allocating        0.132 MB for KS_eigenvector
  Integrating Hamiltonian matrix: batch-based integration.
  Time summed over all CPUs for integration: real work        0.687 s, elapsed        0.741 s
  Integrating overlap matrix.
  Time summed over all CPUs for integration: real work        0.265 s, elapsed        0.280 s
  Deallocating overlap matrix.

  Updating Kohn-Sham eigenvalues and eigenvectors using ELSI and the ELPA eigensolver.
  Overlap matrix is not singular
  | Lowest and highest eigenvalues :  0.3916E-02,  0.4925E+01
  Finished singularity check of overlap matrix
  | Time :     0.004 s
  Starting ELPA eigensolver
  Finished Cholesky decomposition
  | Time :     0.001 s
  Finished transformation to standard eigenproblem
  | Time :     0.001 s
  Finished solving standard eigenproblem
  | Time :     0.003 s
  Finished back-transformation of eigenvectors
  | Time :     0.001 s

  Obtaining occupation numbers and chemical potential using ELSI.
  | Chemical potential (Fermi level):    -8.07940103 eV
  Writing Kohn-Sham eigenvalues.

  State    Occupation    Eigenvalue [Ha]    Eigenvalue [eV]
      1       2.00000         -55.487003        -1509.87817
      2       2.00000         -55.482353        -1509.75163
      3       2.00000         -55.480295        -1509.69563
      4       2.00000         -24.352031         -662.65247
      5       2.00000         -24.352030         -662.65246
      6       2.00000         -24.350726         -662.61697
      7       2.00000         -24.346681         -662.50691
      8       2.00000         -24.339239         -662.30440
      9       2.00000         -24.327744         -661.99160
     10       2.00000         -24.327744         -661.99160
     11       2.00000         -24.327095         -661.97393
     12       2.00000         -24.324023         -661.89035
     13       2.00000          -3.953474         -107.57951
     14       2.00000          -3.945967         -107.37522
     15       2.00000          -3.943611         -107.31111
     16       2.00000          -2.546701          -69.29926
     17       2.00000          -2.545246          -69.25968
     18       2.00000          -2.544633          -69.24298
     19       2.00000          -2.538631          -69.07966
     20       2.00000          -2.537279          -69.04289
     21       2.00000          -2.536739          -69.02817
     22       2.00000          -2.535791          -69.00238
     23       2.00000          -2.535647          -68.99847
     24       2.00000          -2.534305          -68.96196
     25       2.00000          -1.174910          -31.97092
     26       2.00000          -1.166404          -31.73948
     27       2.00000          -1.164029          -31.67485
     28       2.00000          -1.156583          -31.47222
     29       2.00000          -1.146729          -31.20409
     30       2.00000          -1.131412          -30.78728
     31       2.00000          -1.130081          -30.75106
     32       2.00000          -1.129851          -30.74480
     33       2.00000          -1.125349          -30.62230
     34       2.00000          -0.549305          -14.94735
     35       2.00000          -0.519739          -14.14281
     36       2.00000          -0.516818          -14.06333
     37       2.00000          -0.504361          -13.72435
     38       2.00000          -0.498418          -13.56264
     39       2.00000          -0.492473          -13.40086
     40       2.00000          -0.481591          -13.10475
     41       2.00000          -0.480863          -13.08495
     42       2.00000          -0.478235          -13.01344
     43       2.00000          -0.477988          -13.00670
     44       2.00000          -0.476502          -12.96629
     45       2.00000          -0.467783          -12.72902
     46       2.00000          -0.461731          -12.56435
     47       2.00000          -0.459988          -12.51692
     48       2.00000          -0.457245          -12.44228
     49       2.00000          -0.452337          -12.30873
     50       2.00000          -0.452137          -12.30328
     51       2.00000          -0.448356          -12.20038
     52       2.00000          -0.444719          -12.10142
     53       2.00000          -0.441053          -12.00167
     54       2.00000          -0.440157          -11.97727
     55       2.00000          -0.438331          -11.92758
     56       2.00000          -0.437629          -11.90848
     57       2.00000          -0.436709          -11.88346
     58       2.00000          -0.434043          -11.81092
     59       2.00000          -0.429755          -11.69422
     60       2.00000          -0.429117          -11.67688
     61       0.00000          -0.189914           -5.16782
     62       0.00000          -0.152427           -4.14776
     63       0.00000          -0.070978           -1.93141
     64       0.00000          -0.053982           -1.46891
     65       0.00000          -0.046767           -1.27260
     66       0.00000          -0.019225           -0.52315
     67       0.00000          -0.011097           -0.30197
     68       0.00000           0.014326            0.38982
     69       0.00000           0.021322            0.58020
     70       0.00000           0.033925            0.92315
     71       0.00000           0.077654            2.11308
     72       0.00000           0.110242            2.99985
     73       0.00000           0.137359            3.73773
     74       0.00000           0.139382            3.79276
     75       0.00000           0.150048            4.08301
     76       0.00000           0.172035            4.68132
     77       0.00000           0.187539            5.10318
     78       0.00000           0.188677            5.13416
     79       0.00000           0.191305            5.20568
     80       0.00000           0.194038            5.28004
     81       0.00000           0.200755            5.46283
     82       0.00000           0.209966            5.71346
     83       0.00000           0.210635            5.73167
     84       0.00000           0.229156            6.23566
     85       0.00000           0.238472            6.48915
     86       0.00000           0.244418            6.65095
     87       0.00000           0.252558            6.87244
     88       0.00000           0.257932            7.01869
     89       0.00000           0.277078            7.53967
     90       0.00000           0.287161            7.81405
     91       0.00000           0.294549            8.01507
     92       0.00000           0.315064            8.57334
     93       0.00000           0.319244            8.68707
     94       0.00000           0.321861            8.75829
     95       0.00000           0.348767            9.49043
     96       0.00000           0.357515            9.72849

  Highest occupied state (VBM) at    -11.67687746 eV
  | Occupation number:      2.00000000

  Lowest unoccupied state (CBM) at    -5.16781974 eV
  | Occupation number:      0.00000000

  Overall HOMO-LUMO gap:      6.50905772 eV.
  Calculating total energy contributions from superposition of free atom densities.

  Total energy components:
  | Sum of eigenvalues            :        -886.25543507 Ha      -24116.23740894 eV
  | XC energy correction          :        -144.15600782 Ha       -3922.68455688 eV
  | XC potential correction       :         187.68898157 Ha        5107.27704395 eV
  | Free-atom electrostatic energy:        -782.52523728 Ha      -21293.59511269 eV
  | Hartree energy correction     :           0.00000000 Ha           0.00000000 eV
  | Entropy correction            :           0.00000000 Ha           0.00000000 eV
  | ---------------------------
  | Total energy                  :       -1625.24769861 Ha      -44225.24003457 eV
  | Total energy, T -> 0          :       -1625.24769861 Ha      -44225.24003457 eV  <-- do not rely on this value for anything but (periodic) metals
  | Electronic free energy        :       -1625.24769861 Ha      -44225.24003457 eV

  Derived energy quantities:
  | Kinetic energy                :        1627.26849812 Ha       44280.22878703 eV
  | Electrostatic energy          :       -3108.36018890 Ha      -84582.78426472 eV
  | Energy correction for multipole
  | error in Hartree potential    :           0.00000000 Ha           0.00000000 eV
  | Sum of eigenvalues per atom                           :       -2009.68645075 eV
  | Total energy (T->0) per atom                          :       -3685.43666955 eV  <-- do not rely on this value for anything but (periodic) metals
  | Electronic free energy per atom                       :       -3685.43666955 eV
  Initialize hartree_potential_storage
  Max. number of atoms included in rho_multipole:           12

  End scf initialization - timings             :  max(cpu_time)    wall_clock(cpu1)
  | Time for scf. initialization                :        0.142 s           0.142 s
  | Boundary condition initialization           :        0.000 s           0.000 s
  | Integration                                 :        0.054 s           0.053 s
  | Solution of K.-S. eqns.                     :        0.011 s           0.011 s
  | Grid partitioning                           :        0.045 s           0.045 s
  | Preloading free-atom quantities on grid     :        0.017 s           0.017 s
  | Free-atom superposition energy              :        0.005 s           0.005 s
  | Total energy evaluation                     :        0.000 s           0.000 s

  Partial memory accounting:
  | Current value for overall tracked memory usage:
  |   Minimum:        0.273 MB (on task 23)
  |   Maximum:        0.292 MB (on task  0)
  |   Average:        0.287 MB
  | Peak value for overall tracked memory usage:
  |   Minimum:        1.282 MB (on task 23 after allocating wave)
  |   Maximum:        1.376 MB (on task  0 after allocating wave)
  |   Average:        1.324 MB
  | Largest tracked array allocation so far:
  |   Minimum:        0.228 MB (H_times_psi on task  1)
  |   Maximum:        0.492 MB (all_coords on task  9)
  |   Average:        0.257 MB
  Note:  These values currently only include a subset of arrays which are explicitly tracked.
  The "true" memory usage will be greater.
------------------------------------------------------------
  Evaluating new KS density.
  Integration grid: deviation in total charge (<rho> - N_e) =  -1.421085E-14

  Time for density update prior                :  max(cpu_time)    wall_clock(cpu1)
  | self-consistency iterative process          :        0.027 s           0.027 s

------------------------------------------------------------
          Begin self-consistency iteration #    1

  Date     :  20220517, Time     :  115139.138
------------------------------------------------------------
  Pulay mixing of updated and previous charge densities.
  Renormalizing the density to the exact electron count on the 3D integration grid.
  | Formal number of electrons (from input files) :     120.0000000000
  | Integrated number of electrons on 3D grid     :     120.0000000000
  | Charge integration error                      :      -0.0000000000
  | Normalization factor for density and gradient :       1.0000000000

  Evaluating partitioned Hartree potential by multipole expansion.
  | Original multipole sum: apparent total charge =  -0.651840E-13
  | Sum of charges compensated after spline to logarithmic grids =   0.164340E-03
  | Analytical far-field extrapolation by fixed multipoles:
  | Hartree multipole sum: apparent total charge =  -0.642985E-13
  Summing up the Hartree potential.
  Time summed over all CPUs for potential: real work        0.384 s, elapsed        0.395 s
  | RMS charge density error from multipole expansion :   0.102885E-01

  Integrating Hamiltonian matrix: batch-based integration.
  Time summed over all CPUs for integration: real work        0.644 s, elapsed        0.676 s

  Updating Kohn-Sham eigenvalues and eigenvectors using ELSI and the ELPA eigensolver.
  Starting ELPA eigensolver
  Finished transformation to standard eigenproblem
  | Time :     0.000 s
  Finished solving standard eigenproblem
  | Time :     0.004 s
  Finished back-transformation of eigenvectors
  | Time :     0.000 s

  Obtaining occupation numbers and chemical potential using ELSI.
  | Chemical potential (Fermi level):    -8.09251362 eV
  Writing Kohn-Sham eigenvalues.

  State    Occupation    Eigenvalue [Ha]    Eigenvalue [eV]
      1       2.00000         -55.742278        -1516.82456
      2       2.00000         -55.691904        -1515.45381
      3       2.00000         -55.607003        -1513.14353
      4       2.00000         -24.228404         -659.28840
      5       2.00000         -24.228402         -659.28836
      6       2.00000         -24.178585         -657.93277
      7       2.00000         -24.117456         -656.26936
      8       2.00000         -24.060920         -654.73094
      9       2.00000         -24.059297         -654.68677
     10       2.00000         -24.059291         -654.68661
     11       2.00000         -24.057489         -654.63758
     12       2.00000         -24.056548         -654.61197
     13       2.00000          -4.170063         -113.47319
     14       2.00000          -4.122823         -112.18772
     15       2.00000          -4.052847         -110.28357
     16       2.00000          -2.763387          -75.19558
     17       2.00000          -2.762972          -75.18428
     18       2.00000          -2.762261          -75.16495
     19       2.00000          -2.717584          -73.94922
     20       2.00000          -2.715094          -73.88146
     21       2.00000          -2.714192          -73.85691
     22       2.00000          -2.647093          -72.03107
     23       2.00000          -2.644982          -71.97363
     24       2.00000          -2.643743          -71.93992
     25       2.00000          -1.146907          -31.20892
     26       2.00000          -1.138308          -30.97492
     27       2.00000          -1.099610          -29.92190
     28       2.00000          -1.040403          -28.31080
     29       2.00000          -1.014675          -27.61070
     30       2.00000          -1.008073          -27.43107
     31       2.00000          -1.001195          -27.24391
     32       2.00000          -1.000779          -27.23259
     33       2.00000          -0.998377          -27.16723
     34       2.00000          -0.543229          -14.78203
     35       2.00000          -0.505405          -13.75277
     36       2.00000          -0.484133          -13.17392
     37       2.00000          -0.480463          -13.07405
     38       2.00000          -0.459081          -12.49223
     39       2.00000          -0.456548          -12.42331
     40       2.00000          -0.441548          -12.01514
     41       2.00000          -0.420838          -11.45158
     42       2.00000          -0.411435          -11.19572
     43       2.00000          -0.401928          -10.93702
     44       2.00000          -0.396833          -10.79838
     45       2.00000          -0.382389          -10.40534
     46       2.00000          -0.369974          -10.06751
     47       2.00000          -0.360934           -9.82152
     48       2.00000          -0.358513           -9.75564
     49       2.00000          -0.353646           -9.62319
     50       2.00000          -0.351252           -9.55804
     51       2.00000          -0.325762           -8.86443
     52       2.00000          -0.323520           -8.80343
     53       2.00000          -0.318565           -8.66860
     54       2.00000          -0.317884           -8.65006
     55       2.00000          -0.316401           -8.60972
     56       2.00000          -0.312378           -8.50023
     57       2.00000          -0.309603           -8.42474
     58       2.00000          -0.309193           -8.41358
     59       2.00000          -0.307280           -8.36151
     60       2.00000          -0.302195           -8.22315
     61       0.00000          -0.228943           -6.22985
     62       0.00000          -0.176790           -4.81071
     63       0.00000          -0.113399           -3.08574
     64       0.00000          -0.102542           -2.79032
     65       0.00000          -0.083235           -2.26493
     66       0.00000          -0.063789           -1.73579
     67       0.00000          -0.021270           -0.57880
     68       0.00000          -0.010916           -0.29704
     69       0.00000          -0.002886           -0.07853
     70       0.00000           0.048994            1.33319
     71       0.00000           0.064243            1.74814
     72       0.00000           0.095683            2.60366
     73       0.00000           0.096054            2.61376
     74       0.00000           0.117692            3.20257
     75       0.00000           0.137599            3.74425
     76       0.00000           0.153444            4.17541
     77       0.00000           0.159982            4.35332
     78       0.00000           0.160753            4.37431
     79       0.00000           0.184467            5.01961
     80       0.00000           0.184571            5.02243
     81       0.00000           0.190982            5.19689
     82       0.00000           0.193455            5.26417
     83       0.00000           0.205031            5.57917
     84       0.00000           0.213000            5.79601
     85       0.00000           0.214506            5.83700
     86       0.00000           0.228292            6.21214
     87       0.00000           0.239447            6.51570
     88       0.00000           0.249886            6.79974
     89       0.00000           0.265252            7.21789
     90       0.00000           0.273581            7.44451
     91       0.00000           0.284757            7.74864
     92       0.00000           0.303076            8.24712
     93       0.00000           0.312376            8.50018
     94       0.00000           0.327402            8.90906
     95       0.00000           0.354190            9.63801
     96       0.00000           0.360055            9.79759

  Highest occupied state (VBM) at     -8.22314811 eV
  | Occupation number:      2.00000000

  Lowest unoccupied state (CBM) at    -6.22984762 eV
  | Occupation number:      0.00000000

  Overall HOMO-LUMO gap:      1.99330049 eV.

  Total energy components:
  | Sum of eigenvalues            :        -881.14774456 Ha      -23977.25007860 eV
  | XC energy correction          :        -145.53900067 Ha       -3960.31770691 eV
  | XC potential correction       :         189.50781117 Ha        5156.76991546 eV
  | Free-atom electrostatic energy:        -782.52523728 Ha      -21293.59511269 eV
  | Hartree energy correction     :          -5.30302913 Ha        -144.30276465 eV
  | Entropy correction            :          -0.00000000 Ha          -0.00000000 eV
  | ---------------------------
  | Total energy                  :       -1625.00720047 Ha      -44218.69574739 eV
  | Total energy, T -> 0          :       -1625.00720047 Ha      -44218.69574739 eV  <-- do not rely on this value for anything but (periodic) metals
  | Electronic free energy        :       -1625.00720047 Ha      -44218.69574739 eV

  Derived energy quantities:
  | Kinetic energy                :        1633.68015709 Ha       44454.69890464 eV
  | Electrostatic energy          :       -3113.14835690 Ha      -84713.07694512 eV
  | Energy correction for multipole
  | error in Hartree potential    :           0.03168498 Ha           0.86219226 eV
  | Sum of eigenvalues per atom                           :       -1998.10417322 eV
  | Total energy (T->0) per atom                          :       -3684.89131228 eV  <-- do not rely on this value for anything but (periodic) metals
  | Electronic free energy per atom                       :       -3684.89131228 eV
  Evaluating new KS density.
  Integration grid: deviation in total charge (<rho> - N_e) =   0.000000E+00

  Self-consistency convergence accuracy:
  | Change of charge density      :  0.6249E+00
  | Change of sum of eigenvalues  :  0.1390E+03 eV
  | Change of total energy        :  0.6544E+01 eV


------------------------------------------------------------
  End self-consistency iteration #     1       :  max(cpu_time)    wall_clock(cpu1)
  | Time for this iteration                     :        0.078 s           0.079 s
  | Charge density update                       :        0.026 s           0.026 s
  | Density mixing                              :        0.000 s           0.001 s
  | Hartree multipole update                    :        0.001 s           0.001 s
  | Hartree multipole summation                 :        0.017 s           0.017 s
  | Integration                                 :        0.029 s           0.029 s
  | Solution of K.-S. eqns.                     :        0.004 s           0.004 s
  | Total energy evaluation                     :        0.000 s           0.000 s

  Partial memory accounting:
  | Current value for overall tracked memory usage:
  |   Minimum:        0.273 MB (on task 23)
  |   Maximum:        0.292 MB (on task  0)
  |   Average:        0.287 MB
  | Peak value for overall tracked memory usage:
  |   Minimum:        1.282 MB (on task 23 after allocating wave)
  |   Maximum:        1.376 MB (on task  0 after allocating wave)
  |   Average:        1.324 MB
  | Largest tracked array allocation so far:
  |   Minimum:        0.683 MB (gradient_basis_wave on task  1)
  |   Maximum:        0.735 MB (gradient_basis_wave on task  0)
  |   Average:        0.706 MB
  Note:  These values currently only include a subset of arrays which are explicitly tracked.
  The "true" memory usage will be greater.
------------------------------------------------------------

------------------------------------------------------------
          Begin self-consistency iteration #    2

  Date     :  20220517, Time     :  115139.222
------------------------------------------------------------
  Pulay mixing of updated and previous charge densities.
  Renormalizing the density to the exact electron count on the 3D integration grid.
  | Formal number of electrons (from input files) :     120.0000000000
  | Integrated number of electrons on 3D grid     :     120.0000000000
  | Charge integration error                      :      -0.0000000000
  | Normalization factor for density and gradient :       1.0000000000

  Evaluating partitioned Hartree potential by multipole expansion.
  | Original multipole sum: apparent total charge =  -0.119914E-12
  | Sum of charges compensated after spline to logarithmic grids =   0.128742E-03
  | Analytical far-field extrapolation by fixed multipoles:
  | Hartree multipole sum: apparent total charge =  -0.123038E-12
  Summing up the Hartree potential.
  Time summed over all CPUs for potential: real work        0.383 s, elapsed        0.394 s
  | RMS charge density error from multipole expansion :   0.114620E-01

  Integrating Hamiltonian matrix: batch-based integration.
  Time summed over all CPUs for integration: real work        0.643 s, elapsed        0.677 s

  Updating Kohn-Sham eigenvalues and eigenvectors using ELSI and the ELPA eigensolver.
  Starting ELPA eigensolver
  Finished transformation to standard eigenproblem
  | Time :     0.001 s
  Finished solving standard eigenproblem
  | Time :     0.003 s
  Finished back-transformation of eigenvectors
  | Time :     0.000 s

  Obtaining occupation numbers and chemical potential using ELSI.
  | Chemical potential (Fermi level):    -8.31206431 eV
  Highest occupied state (VBM) at     -9.05387222 eV
  | Occupation number:      2.00000000

  Lowest unoccupied state (CBM) at    -6.51210782 eV
  | Occupation number:      0.00000000

  Overall HOMO-LUMO gap:      2.54176440 eV.

  Checking to see if s.c.f. parameters should be adjusted.

  Total energy components:
  | Sum of eigenvalues            :        -884.50412423 Ha      -24068.58181618 eV
  | XC energy correction          :        -144.94762812 Ha       -3944.22564112 eV
  | XC potential correction       :         188.72994352 Ha        5135.60305980 eV
  | Free-atom electrostatic energy:        -782.52523728 Ha      -21293.59511269 eV
  | Hartree energy correction     :          -1.65790720 Ha         -45.11395018 eV
  | Entropy correction            :           0.00000000 Ha           0.00000000 eV
  | ---------------------------
  | Total energy                  :       -1624.90495331 Ha      -44215.91346037 eV
  | Total energy, T -> 0          :       -1624.90495331 Ha      -44215.91346037 eV  <-- do not rely on this value for anything but (periodic) metals
  | Electronic free energy        :       -1624.90495331 Ha      -44215.91346037 eV

  Derived energy quantities:
  | Kinetic energy                :        1629.43436153 Ha       44339.16492915 eV
  | Electrostatic energy          :       -3109.39168672 Ha      -84610.85274840 eV
  | Energy correction for multipole
  | error in Hartree potential    :           0.03340930 Ha           0.90911338 eV
  | Sum of eigenvalues per atom                           :       -2005.71515135 eV
  | Total energy (T->0) per atom                          :       -3684.65945503 eV  <-- do not rely on this value for anything but (periodic) metals
  | Electronic free energy per atom                       :       -3684.65945503 eV
  Evaluating new KS density.
  Integration grid: deviation in total charge (<rho> - N_e) =  -2.842171E-14

  Self-consistency convergence accuracy:
  | Change of charge density      :  0.5949E+00
  | Change of sum of eigenvalues  : -0.9133E+02 eV
  | Change of total energy        :  0.2782E+01 eV


------------------------------------------------------------
  End self-consistency iteration #     2       :  max(cpu_time)    wall_clock(cpu1)
  | Time for this iteration                     :        0.081 s           0.079 s
  | Charge density update                       :        0.026 s           0.026 s
  | Density mixing                              :        0.004 s           0.002 s
  | Hartree multipole update                    :        0.001 s           0.001 s
  | Hartree multipole summation                 :        0.017 s           0.017 s
  | Integration                                 :        0.029 s           0.028 s
  | Solution of K.-S. eqns.                     :        0.004 s           0.004 s
  | Total energy evaluation                     :        0.000 s           0.000 s

  Partial memory accounting:
  | Current value for overall tracked memory usage:
  |   Minimum:        0.274 MB (on task 23)
  |   Maximum:        0.293 MB (on task  0)
  |   Average:        0.288 MB
  | Peak value for overall tracked memory usage:
  |   Minimum:        1.282 MB (on task 23 after allocating wave)
  |   Maximum:        1.376 MB (on task  0 after allocating wave)
  |   Average:        1.324 MB
  | Largest tracked array allocation so far:
  |   Minimum:        0.683 MB (gradient_basis_wave on task  1)
  |   Maximum:        0.735 MB (gradient_basis_wave on task  0)
  |   Average:        0.706 MB
  Note:  These values currently only include a subset of arrays which are explicitly tracked.
  The "true" memory usage will be greater.
------------------------------------------------------------

------------------------------------------------------------
          Begin self-consistency iteration #    3

  Date     :  20220517, Time     :  115139.307
------------------------------------------------------------
  Pulay mixing of updated and previous charge densities.
  Renormalizing the density to the exact electron count on the 3D integration grid.
  | Formal number of electrons (from input files) :     120.0000000000
  | Integrated number of electrons on 3D grid     :     120.0000000000
  | Charge integration error                      :       0.0000000000
  | Normalization factor for density and gradient :       1.0000000000

  Evaluating partitioned Hartree potential by multipole expansion.
  | Original multipole sum: apparent total charge =  -0.882567E-13
  | Sum of charges compensated after spline to logarithmic grids =   0.165131E-03
  | Analytical far-field extrapolation by fixed multipoles:
  | Hartree multipole sum: apparent total charge =  -0.919955E-13
  Summing up the Hartree potential.
  Time summed over all CPUs for potential: real work        0.383 s, elapsed        0.394 s
  | RMS charge density error from multipole expansion :   0.148275E-01

  Integrating Hamiltonian matrix: batch-based integration.
  Time summed over all CPUs for integration: real work        0.643 s, elapsed        0.678 s

  Updating Kohn-Sham eigenvalues and eigenvectors using ELSI and the ELPA eigensolver.
  Starting ELPA eigensolver
  Finished transformation to standard eigenproblem
  | Time :     0.000 s
  Finished solving standard eigenproblem
  | Time :     0.003 s
  Finished back-transformation of eigenvectors
  | Time :     0.000 s

  Obtaining occupation numbers and chemical potential using ELSI.
  | Chemical potential (Fermi level):    -8.38689151 eV
  Highest occupied state (VBM) at     -9.24394704 eV
  | Occupation number:      2.00000000

  Lowest unoccupied state (CBM) at    -6.78616352 eV
  | Occupation number:      0.00000000

  Overall HOMO-LUMO gap:      2.45778352 eV.

  Total energy components:
  | Sum of eigenvalues            :        -885.50893522 Ha      -24095.92411437 eV
  | XC energy correction          :        -144.90945701 Ha       -3943.18695238 eV
  | XC potential correction       :         188.67907208 Ha        5134.21877759 eV
  | Free-atom electrostatic energy:        -782.52523728 Ha      -21293.59511269 eV
  | Hartree energy correction     :          -0.63937361 Ha         -17.39824125 eV
  | Entropy correction            :           0.00000000 Ha           0.00000000 eV
  | ---------------------------
  | Total energy                  :       -1624.90393104 Ha      -44215.88564310 eV
  | Total energy, T -> 0          :       -1624.90393104 Ha      -44215.88564310 eV  <-- do not rely on this value for anything but (periodic) metals
  | Electronic free energy        :       -1624.90393104 Ha      -44215.88564310 eV

  Derived energy quantities:
  | Kinetic energy                :        1628.03196781 Ha       44301.00385423 eV
  | Electrostatic energy          :       -3108.02644184 Ha      -84573.70254496 eV
  | Energy correction for multipole
  | error in Hartree potential    :           0.04241791 Ha           1.15425006 eV
  | Sum of eigenvalues per atom                           :       -2007.99367620 eV
  | Total energy (T->0) per atom                          :       -3684.65713693 eV  <-- do not rely on this value for anything but (periodic) metals
  | Electronic free energy per atom                       :       -3684.65713693 eV
  Evaluating new KS density.
  Integration grid: deviation in total charge (<rho> - N_e) =   0.000000E+00

  Self-consistency convergence accuracy:
  | Change of charge density      :  0.1543E+00
  | Change of sum of eigenvalues  : -0.2734E+02 eV
  | Change of total energy        :  0.2782E-01 eV


------------------------------------------------------------
  End self-consistency iteration #     3       :  max(cpu_time)    wall_clock(cpu1)
  | Time for this iteration                     :        0.081 s           0.078 s
  | Charge density update                       :        0.026 s           0.026 s
  | Density mixing                              :        0.004 s           0.001 s
  | Hartree multipole update                    :        0.001 s           0.001 s
  | Hartree multipole summation                 :        0.017 s           0.017 s
  | Integration                                 :        0.029 s           0.028 s
  | Solution of K.-S. eqns.                     :        0.004 s           0.005 s
  | Total energy evaluation                     :        0.000 s           0.000 s

  Partial memory accounting:
  | Current value for overall tracked memory usage:
  |   Minimum:        0.274 MB (on task 23)
  |   Maximum:        0.293 MB (on task  0)
  |   Average:        0.288 MB
  | Peak value for overall tracked memory usage:
  |   Minimum:        1.282 MB (on task 23 after allocating wave)
  |   Maximum:        1.376 MB (on task  0 after allocating wave)
  |   Average:        1.324 MB
  | Largest tracked array allocation so far:
  |   Minimum:        0.683 MB (gradient_basis_wave on task  1)
  |   Maximum:        0.735 MB (gradient_basis_wave on task  0)
  |   Average:        0.706 MB
  Note:  These values currently only include a subset of arrays which are explicitly tracked.
  The "true" memory usage will be greater.
------------------------------------------------------------

------------------------------------------------------------
          Begin self-consistency iteration #    4

  Date     :  20220517, Time     :  115139.391
------------------------------------------------------------
  Pulay mixing of updated and previous charge densities.
  Renormalizing the density to the exact electron count on the 3D integration grid.
  | Formal number of electrons (from input files) :     120.0000000000
  | Integrated number of electrons on 3D grid     :     120.0000000000
  | Charge integration error                      :      -0.0000000000
  | Normalization factor for density and gradient :       1.0000000000

  Evaluating partitioned Hartree potential by multipole expansion.
  | Original multipole sum: apparent total charge =  -0.117331E-12
  | Sum of charges compensated after spline to logarithmic grids =   0.197165E-03
  | Analytical far-field extrapolation by fixed multipoles:
  | Hartree multipole sum: apparent total charge =  -0.119594E-12
  Summing up the Hartree potential.
  Time summed over all CPUs for potential: real work        0.383 s, elapsed        0.394 s
  | RMS charge density error from multipole expansion :   0.179344E-01

  Integrating Hamiltonian matrix: batch-based integration.
  Time summed over all CPUs for integration: real work        0.643 s, elapsed        0.677 s

  Updating Kohn-Sham eigenvalues and eigenvectors using ELSI and the ELPA eigensolver.
  Starting ELPA eigensolver
  Finished transformation to standard eigenproblem
  | Time :     0.001 s
  Finished solving standard eigenproblem
  | Time :     0.003 s
  Finished back-transformation of eigenvectors
  | Time :     0.000 s

  Obtaining occupation numbers and chemical potential using ELSI.
  | Chemical potential (Fermi level):    -8.35989856 eV
  Highest occupied state (VBM) at     -9.06635825 eV
  | Occupation number:      2.00000000

  Lowest unoccupied state (CBM) at    -6.87427818 eV
  | Occupation number:      0.00000000

  Overall HOMO-LUMO gap:      2.19208007 eV.

  Total energy components:
  | Sum of eigenvalues            :        -885.91417936 Ha      -24106.95136861 eV
  | XC energy correction          :        -144.87242460 Ha       -3942.17924915 eV
  | XC potential correction       :         188.62943538 Ha        5132.86809407 eV
  | Free-atom electrostatic energy:        -782.52523728 Ha      -21293.59511269 eV
  | Hartree energy correction     :          -0.21691822 Ha          -5.90264512 eV
  | Entropy correction            :           0.00000000 Ha           0.00000000 eV
  | ---------------------------
  | Total energy                  :       -1624.89932409 Ha      -44215.76028150 eV
  | Total energy, T -> 0          :       -1624.89932409 Ha      -44215.76028150 eV  <-- do not rely on this value for anything but (periodic) metals
  | Electronic free energy        :       -1624.89932409 Ha      -44215.76028150 eV

  Derived energy quantities:
  | Kinetic energy                :        1626.85116509 Ha       44268.87257754 eV
  | Electrostatic energy          :       -3106.87806458 Ha      -84542.45360989 eV
  | Energy correction for multipole
  | error in Hartree potential    :           0.05047625 Ha           1.37352871 eV
  | Sum of eigenvalues per atom                           :       -2008.91261405 eV
  | Total energy (T->0) per atom                          :       -3684.64669012 eV  <-- do not rely on this value for anything but (periodic) metals
  | Electronic free energy per atom                       :       -3684.64669012 eV
  Evaluating new KS density.
  Integration grid: deviation in total charge (<rho> - N_e) =   2.842171E-14

  Self-consistency convergence accuracy:
  | Change of charge density      :  0.1340E+00
  | Change of sum of eigenvalues  : -0.1103E+02 eV
  | Change of total energy        :  0.1254E+00 eV


------------------------------------------------------------
  End self-consistency iteration #     4       :  max(cpu_time)    wall_clock(cpu1)
  | Time for this iteration                     :        0.081 s           0.078 s
  | Charge density update                       :        0.026 s           0.025 s
  | Density mixing                              :        0.004 s           0.001 s
  | Hartree multipole update                    :        0.001 s           0.002 s
  | Hartree multipole summation                 :        0.017 s           0.016 s
  | Integration                                 :        0.029 s           0.029 s
  | Solution of K.-S. eqns.                     :        0.004 s           0.004 s
  | Total energy evaluation                     :        0.000 s           0.001 s

  Partial memory accounting:
  | Current value for overall tracked memory usage:
  |   Minimum:        0.274 MB (on task 23)
  |   Maximum:        0.293 MB (on task  0)
  |   Average:        0.288 MB
  | Peak value for overall tracked memory usage:
  |   Minimum:        1.282 MB (on task 23 after allocating wave)
  |   Maximum:        1.376 MB (on task  0 after allocating wave)
  |   Average:        1.324 MB
  | Largest tracked array allocation so far:
  |   Minimum:        0.683 MB (gradient_basis_wave on task  1)
  |   Maximum:        0.735 MB (gradient_basis_wave on task  0)
  |   Average:        0.706 MB
  Note:  These values currently only include a subset of arrays which are explicitly tracked.
  The "true" memory usage will be greater.
------------------------------------------------------------

------------------------------------------------------------
          Begin self-consistency iteration #    5

  Date     :  20220517, Time     :  115139.476
------------------------------------------------------------
  Pulay mixing of updated and previous charge densities.
  Renormalizing the density to the exact electron count on the 3D integration grid.
  | Formal number of electrons (from input files) :     120.0000000000
  | Integrated number of electrons on 3D grid     :     120.0000000000
  | Charge integration error                      :       0.0000000000
  | Normalization factor for density and gradient :       1.0000000000

  Evaluating partitioned Hartree potential by multipole expansion.
  | Original multipole sum: apparent total charge =  -0.760070E-13
  | Sum of charges compensated after spline to logarithmic grids =   0.196859E-03
  | Analytical far-field extrapolation by fixed multipoles:
  | Hartree multipole sum: apparent total charge =  -0.782208E-13
  Summing up the Hartree potential.
  Time summed over all CPUs for potential: real work        0.383 s, elapsed        0.394 s
  | RMS charge density error from multipole expansion :   0.177664E-01

  Integrating Hamiltonian matrix: batch-based integration.
  Time summed over all CPUs for integration: real work        0.643 s, elapsed        0.677 s

  Updating Kohn-Sham eigenvalues and eigenvectors using ELSI and the ELPA eigensolver.
  Starting ELPA eigensolver
  Finished transformation to standard eigenproblem
  | Time :     0.000 s
  Finished solving standard eigenproblem
  | Time :     0.003 s
  Finished back-transformation of eigenvectors
  | Time :     0.001 s

  Obtaining occupation numbers and chemical potential using ELSI.
  | Chemical potential (Fermi level):    -8.33950744 eV
  Highest occupied state (VBM) at     -9.06355618 eV
  | Occupation number:      2.00000000

  Lowest unoccupied state (CBM) at    -6.80480460 eV
  | Occupation number:      0.00000000

  Overall HOMO-LUMO gap:      2.25875158 eV.

  Total energy components:
  | Sum of eigenvalues            :        -885.76983140 Ha      -24103.02346082 eV
  | XC energy correction          :        -144.86428808 Ha       -3941.95784322 eV
  | XC potential correction       :         188.61886232 Ha        5132.58038644 eV
  | Free-atom electrostatic energy:        -782.52523728 Ha      -21293.59511269 eV
  | Hartree energy correction     :          -0.35832086 Ha          -9.75040678 eV
  | Entropy correction            :           0.00000000 Ha           0.00000000 eV
[...]
   Total forces(   7)            :  0.279434E+01  0.631082E+00  0.143648E+01
  atom #    8
   Hellmann-Feynman              :  0.496498E+00  0.123668E+00  0.869422E+00
   Ionic forces                  :  0.000000E+00  0.000000E+00  0.000000E+00
   Multipole                     :  0.109395E+00  0.297081E-01  0.302135E+00
   Hartree pot. SCF incomplete   :  0.430454E-05  0.100744E-05  0.306030E-05
   Pulay + GGA                   : -0.415948E+01 -0.953325E+00 -0.285159E+01
   ----------------------------------------------------------------
   Total forces(   8)            : -0.355358E+01 -0.799948E+00 -0.168003E+01
  atom #    9
   Hellmann-Feynman              :  0.252321E+00  0.195075E+01  0.453309E+00
   Ionic forces                  :  0.000000E+00  0.000000E+00  0.000000E+00
   Multipole                     :  0.214976E+00  0.583420E+00 -0.339441E-01
   Hartree pot. SCF incomplete   :  0.237517E-05  0.862112E-05  0.629519E-06
   Pulay + GGA                   : -0.158445E+01 -0.656987E+01 -0.117342E+01
   ----------------------------------------------------------------
   Total forces(   9)            : -0.111715E+01 -0.403569E+01 -0.754058E+00
  atom #   10
   Hellmann-Feynman              :  0.103403E+01 -0.165369E+01  0.522567E+00
   Ionic forces                  :  0.000000E+00  0.000000E+00  0.000000E+00
   Multipole                     :  0.437026E+00 -0.443477E+00 -0.142177E-01
   Hartree pot. SCF incomplete   :  0.571720E-05 -0.683522E-05  0.938793E-06
   Pulay + GGA                   : -0.414710E+01  0.528219E+01 -0.139981E+01
   ----------------------------------------------------------------
   Total forces(  10)            : -0.267603E+01  0.318501E+01 -0.891456E+00
  atom #   11
   Hellmann-Feynman              : -0.298537E+01 -0.583062E+00  0.327372E+01
   Ionic forces                  :  0.000000E+00  0.000000E+00  0.000000E+00
   Multipole                     : -0.374435E+00 -0.709835E-01  0.517421E+00
   Hartree pot. SCF incomplete   : -0.545457E-05 -0.123339E-05 -0.299572E-05
   Pulay + GGA                   :  0.441262E+01  0.854815E+00 -0.520499E+01
   ----------------------------------------------------------------
   Total forces(  11)            :  0.105281E+01  0.200768E+00 -0.141386E+01
  atom #   12
   Hellmann-Feynman              :  0.117807E+01  0.225089E+00 -0.155737E+01
   Ionic forces                  :  0.000000E+00  0.000000E+00  0.000000E+00
   Multipole                     :  0.501965E+00  0.100315E+00 -0.422208E+00
   Hartree pot. SCF incomplete   :  0.433233E-05  0.841477E-06 -0.495013E-05
   Pulay + GGA                   : -0.490560E+01 -0.966147E+00  0.493574E+01
   ----------------------------------------------------------------
   Total forces(  12)            : -0.322556E+01 -0.640742E+00  0.295616E+01


  Self-consistency convergence accuracy:
  | Change of charge density      :  0.3232E-06
  | Change of sum of eigenvalues  : -0.2684E-04 eV
  | Change of total energy        :  0.1048E-07 eV
  | Change of forces              :  0.1599E-05 eV/A

  Writing Kohn-Sham eigenvalues.

  State    Occupation    Eigenvalue [Ha]    Eigenvalue [eV]
      1       2.00000         -55.714395        -1516.06581
      2       2.00000         -55.666464        -1514.76156
      3       2.00000         -55.580320        -1512.41745
      4       2.00000         -24.313273         -661.59782
      5       2.00000         -24.313272         -661.59781
      6       2.00000         -24.280643         -660.70991
      7       2.00000         -24.260461         -660.16075
      8       2.00000         -24.233569         -659.42897
      9       2.00000         -24.220792         -659.08128
     10       2.00000         -24.220784         -659.08107
     11       2.00000         -24.185493         -658.12075
     12       2.00000         -24.184724         -658.09982
     13       2.00000          -4.157721         -113.13734
     14       2.00000          -4.112149         -111.89727
     15       2.00000          -4.039773         -109.92781
     16       2.00000          -2.751397          -74.86931
     17       2.00000          -2.749004          -74.80419
     18       2.00000          -2.747707          -74.76891
     19       2.00000          -2.707832          -73.68386
     20       2.00000          -2.702700          -73.54421
     21       2.00000          -2.700973          -73.49721
     22       2.00000          -2.632525          -71.63464
     23       2.00000          -2.632288          -71.62820
     24       2.00000          -2.628415          -71.52282
     25       2.00000          -1.172419          -31.90314
     26       2.00000          -1.164822          -31.69642
     27       2.00000          -1.126574          -30.65563
     28       2.00000          -1.089357          -29.64290
     29       2.00000          -1.063389          -28.93630
     30       2.00000          -1.054242          -28.68739
     31       2.00000          -1.052280          -28.63398
     32       2.00000          -1.045320          -28.44461
     33       2.00000          -1.037866          -28.24176
     34       2.00000          -0.561170          -15.27021
     35       2.00000          -0.526307          -14.32153
     36       2.00000          -0.506396          -13.77972
     37       2.00000          -0.504600          -13.73087
     38       2.00000          -0.488450          -13.29141
     39       2.00000          -0.477844          -13.00281
     40       2.00000          -0.464193          -12.63133
     41       2.00000          -0.459527          -12.50436
     42       2.00000          -0.439781          -11.96706
     43       2.00000          -0.433520          -11.79667
     44       2.00000          -0.427390          -11.62986
     45       2.00000          -0.422285          -11.49097
     46       2.00000          -0.408979          -11.12890
     47       2.00000          -0.406528          -11.06220
     48       2.00000          -0.405538          -11.03524
     49       2.00000          -0.396705          -10.79489
     50       2.00000          -0.383177          -10.42677
     51       2.00000          -0.372112          -10.12569
     52       2.00000          -0.369082          -10.04322
     53       2.00000          -0.365475           -9.94508
     54       2.00000          -0.361680           -9.84180
     55       2.00000          -0.358926           -9.76687
     56       2.00000          -0.356758           -9.70789
     57       2.00000          -0.351703           -9.57031
     58       2.00000          -0.351627           -9.56826
     59       2.00000          -0.340715           -9.27133
     60       2.00000          -0.333296           -9.06943
     61       0.00000          -0.248751           -6.76886
     62       0.00000          -0.193958           -5.27788
     63       0.00000          -0.118620           -3.22783
     64       0.00000          -0.104997           -2.85713
     65       0.00000          -0.091521           -2.49042
     66       0.00000          -0.066530           -1.81037
     67       0.00000          -0.024255           -0.66000
     68       0.00000          -0.016395           -0.44612
     69       0.00000          -0.007981           -0.21718
     70       0.00000           0.046532            1.26620
     71       0.00000           0.063260            1.72140
     72       0.00000           0.092352            2.51301
     73       0.00000           0.093473            2.54353
     74       0.00000           0.116545            3.17135
     75       0.00000           0.133621            3.63602
     76       0.00000           0.150339            4.09094
     77       0.00000           0.158832            4.32203
     78       0.00000           0.160645            4.37137
     79       0.00000           0.180191            4.90324
     80       0.00000           0.183358            4.98943
     81       0.00000           0.187521            5.10271
     82       0.00000           0.187660            5.10649
     83       0.00000           0.198975            5.41440
     84       0.00000           0.205584            5.59421
     85       0.00000           0.207814            5.65490
     86       0.00000           0.222371            6.05103
     87       0.00000           0.236621            6.43879
     88       0.00000           0.245171            6.67145
     89       0.00000           0.260600            7.09130
     90       0.00000           0.273844            7.45169
     91       0.00000           0.275592            7.49925
     92       0.00000           0.295578            8.04308
     93       0.00000           0.305968            8.32582
     94       0.00000           0.321480            8.74790
     95       0.00000           0.346463            9.42773
     96       0.00000           0.350980            9.55065

  Highest occupied state (VBM) at     -9.06943395 eV
  | Occupation number:      2.00000000

  Lowest unoccupied state (CBM) at    -6.76886246 eV
  | Occupation number:      0.00000000

  Overall HOMO-LUMO gap:      2.30057149 eV.
  | Chemical Potential                          :    -8.32766924 eV

  Self-consistency cycle converged.


------------------------------------------------------------
  End self-consistency iteration #    15       :  max(cpu_time)    wall_clock(cpu1)
  | Time for this iteration                     :        0.261 s           0.259 s
  | Charge density & force component update     :        0.139 s           0.138 s
  | Density mixing                              :        0.005 s           0.002 s
  | Hartree multipole update                    :        0.001 s           0.002 s
  | Hartree multipole summation                 :        0.050 s           0.050 s
  | Hartree pot. SCF incomplete forces          :        0.033 s           0.033 s
  | Integration                                 :        0.028 s           0.029 s
  | Solution of K.-S. eqns.                     :        0.004 s           0.003 s
  | Total energy evaluation                     :        0.000 s           0.000 s

  Partial memory accounting:
  | Current value for overall tracked memory usage:
  |   Minimum:        0.274 MB (on task 23)
  |   Maximum:        0.293 MB (on task  0)
  |   Average:        0.289 MB
  | Peak value for overall tracked memory usage:
  |   Minimum:        2.826 MB (on task 23 after allocating hessian_basis_wave)
  |   Maximum:        3.004 MB (on task  0 after allocating hessian_basis_wave)
  |   Average:        2.900 MB
  | Largest tracked array allocation so far:
  |   Minimum:        1.367 MB (hessian_basis_wave on task  1)
  |   Maximum:        1.471 MB (hessian_basis_wave on task  0)
  |   Average:        1.411 MB
  Note:  These values currently only include a subset of arrays which are explicitly tracked.
  The "true" memory usage will be greater.
------------------------------------------------------------
  Removing unitary transformations (pure translations, rotations) from forces on atoms.
  Atomic forces before filtering:
  | Net force on center of mass :   0.710335E-02  0.908807E-03  0.163670E-02 eV/A
  | Net torque on center of mass:  -0.408705E-02 -0.119085E-01  0.464327E-02 eV
  Atomic forces after filtering:
  | Net force on center of mass :   0.142725E-14 -0.356812E-15  0.356812E-15 eV/A
  | Net torque on center of mass:  -0.339870E-14  0.000000E+00 -0.132172E-14 eV

  Energy and forces in a compact form:
  | Total energy uncorrected      :         -0.442157448532366E+05 eV
  | Total energy corrected        :         -0.442157448532366E+05 eV  <-- do not rely on this value for anything but (periodic) metals
  | Electronic free energy        :         -0.442157448532366E+05 eV
  Total atomic forces (unitary forces cleaned) [eV/Ang]:
  |    1          0.423289686559524E+01          0.902236482314929E+00         -0.617668617760857E+00
  |    2          0.250339503301172E+01          0.529983674938906E+00         -0.590317177751411E+00
  |    3         -0.466344958997097E+01         -0.101528802245020E+01         -0.426823883024409E+00
  |    4          0.970215522168871E+00          0.245817681375251E+00          0.188779143112267E+01
  |    5          0.129322214674848E+01          0.294137749296441E+01         -0.688404426029141E-03
  |    6          0.239162504074473E+01         -0.214353701096447E+01          0.957890068722839E-01
  |    7          0.279392153877828E+01          0.630977398832199E+00          0.143645981677523E+01
  |    8         -0.355407649777045E+01         -0.800219443672629E+00         -0.168049072881488E+01
  |    9         -0.111714053652391E+01         -0.403605302591509E+01         -0.754205598948242E+00
  |   10         -0.267626350688385E+01          0.318459220958959E+01         -0.891972245853802E+00
  |   11          0.105219048269401E+01          0.200899533241518E+00         -0.141357763943275E+01
  |   12         -0.322653649859214E+01         -0.640786970254414E+00          0.295570404124219E+01

  ------------------------------------ 
  Start decomposition of the XC Energy 
  ------------------------------------ 
  X and C from original XC functional choice 
  Hartree-Fock Energy :          0.000000000 Ha              0.000000000 eV
  X Energy            :       -139.949074300 Ha          -3808.208071197 eV
  C Energy            :         -4.920456065 Ha           -133.892421896 eV
  Total XC Energy     :       -144.869530365 Ha          -3942.100493093 eV
  ------------------------------------ 
  LDA X and C from self-consistent density 
  X Energy LDA        :       -132.506585390 Ha          -3605.687643841 eV
  C Energy LDA        :         -8.807931673 Ha           -239.676015410 eV
  ------------------------------------ 
  End decomposition of the XC Energy 
  ------------------------------------ 

------------------------------------------------------------

------------------------------------------------------------------------------
  Final output of selected total energy values:

  The following output summarizes some interesting total energy values
  at the end of a run (AFTER all relaxation, molecular dynamics, etc.).

  | Total energy of the DFT / Hartree-Fock s.c.f. calculation      :         -44215.744853237 eV
  | Final zero-broadening corrected energy (caution - metals only) :         -44215.744853237 eV
  | For reference only, the value of 1 Hartree used in FHI-aims is :             27.211384500 eV

  Before relying on these values, please be sure to understand exactly which
  total energy value is referred to by a given number. Different objects may
  all carry the same name 'total energy'. Definitions:

  Total energy of the DFT / Hartree-Fock s.c.f. calculation:
  | Note that this energy does not include ANY quantities calculated after the
  | s.c.f. cycle, in particular not ANY RPA, MP2, etc. many-body perturbation terms.

  Final zero-broadening corrected energy:
  | For metallic systems only, a broadening of the occupation numbers at the Fermi
  | level can be extrapolated back to zero broadening by an electron-gas inspired
  | formula. For all systems that are not real metals, this value can be
  | meaningless and should be avoided.

------------------------------------------------------------------------------
  Methods described in the following list of references were used in this FHI-aims run.
  If you publish the results, please make sure to cite these reference if they apply.
  FHI-aims is an academic code, and for our developers (often, Ph.D. students
  and postdocs), scientific credit in the community is essential.
  Thank you for helping us!

  For any use of FHI-aims, please cite:

    Volker Blum, Ralf Gehrke, Felix Hanke, Paula Havu, Ville Havu,
    Xinguo Ren, Karsten Reuter, and Matthias Scheffler
    'Ab initio molecular simulations with numeric atom-centered orbitals'
    Computer Physics Communications 180, 2175-2196 (2009)
    http://dx.doi.org/10.1016/j.cpc.2009.06.022


  The ELSI infrastructure was used in your run to solve the Kohn-Sham electronic structure.
  Please check out http://elsi-interchange.org to learn more.
  If scalability is important for your project, please acknowledge ELSI by citing:

    V. W-z. Yu, F. Corsetti, A. Garcia, W. P. Huhn, M. Jacquelin, W. Jia,
    B. Lange, L. Lin, J. Lu, W. Mi, A. Seifitokaldani, A. Vazquez-Mayagoitia,
    C. Yang, H. Yang, and V. Blum
    'ELSI: A unified software interface for Kohn-Sham electronic structure solvers'
    Computer Physics Communications 222, 267-285 (2018).
    http://dx.doi.org/10.1016/j.cpc.2017.09.007


  For the real-space grid partitioning and parallelization used in this calculation, please cite:

    Ville Havu, Volker Blum, Paula Havu, and Matthias Scheffler,
    'Efficient O(N) integration for all-electron electronic structure calculation'
    'using numerically tabulated basis functions'
    Journal of Computational Physics 228, 8367-8379 (2009).
    http://dx.doi.org/10.1016/j.jcp.2009.08.008

  Of course, there are many other important community references, e.g., those cited in the
  above references. Our list is limited to references that describe implementations in the
  FHI-aims code. The reason is purely practical (length of this list) - please credit others as well.

------------------------------------------------------------
          Leaving FHI-aims.
          Date     :  20220517, Time     :  115140.788

          Computational steps:
          | Number of self-consistency cycles          :           15
          | Number of SCF (re)initializations          :            1

          Detailed time accounting                     :  max(cpu_time)    wall_clock(cpu1)
          | Total time                                  :        1.996 s           2.061 s
          | Preparation time                            :        0.183 s           0.187 s
          | Boundary condition initalization            :        0.000 s           0.000 s
          | Grid partitioning                           :        0.045 s           0.045 s
          | Preloading free-atom quantities on grid     :        0.017 s           0.017 s
          | Free-atom superposition energy              :        0.005 s           0.005 s
          | Total time for integrations                 :        0.481 s           0.483 s
          | Total time for solution of K.-S. equations  :        0.071 s           0.071 s
          | Total time for density & force components   :        0.642 s           0.641 s
          | Total time for mixing                       :        0.070 s           0.033 s
          | Total time for Hartree multipole update     :        0.020 s           0.021 s
          | Total time for Hartree multipole sum        :        0.318 s           0.316 s
          | Total time for total energy evaluation      :        0.002 s           0.002 s
          | Total time NSC force correction             :        0.066 s           0.066 s
          | Total time for scaled ZORA corrections      :        0.000 s           0.000 s

          Partial memory accounting:
          | Residual value for overall tracked memory usage across tasks:     0.000000 MB (should be 0.000000 MB)
          | Peak values for overall tracked memory usage:
          |   Minimum:        2.826 MB (on task 23 after allocating hessian_basis_wave)
          |   Maximum:        3.004 MB (on task  0 after allocating hessian_basis_wave)
          |   Average:        2.900 MB
          | Largest tracked array allocation:
          |   Minimum:        1.367 MB (hessian_basis_wave on task  1)
          |   Maximum:        1.471 MB (hessian_basis_wave on task  0)
          |   Average:        1.411 MB
          Note:  These values currently only include a subset of arrays which are explicitly tracked.
          The "true" memory usage will be greater.

          Have a nice day.
------------------------------------------------------------
