12
Properties=species:S:1:pos:R:3:forces:R:3 energy=-182.69785771 pbc="F F F"
Al    -0.20397723799999998    0.25300935999999996    -1.925650336    -2.995815    -0.673606    -1.371238
Al    -0.660998114    1.0102866529999999    1.592962836    -2.159157    -0.439193    1.438463
Al    -2.9426237189999997    0.5122816889999999    -1.837508942    2.713474    0.592339    0.309965
F    -3.525451261    0.458881408    -3.5087615079999996    0.450251    0.12174    1.280985
F    -1.331549557    -0.630840301    -1.820154845    -2.937765    -2.167103    -0.044263
F    -2.540164687    2.1779796030000003    -1.945754583    -3.569916    0.757924    -0.10005
F    -2.122872525    0.776577139    0.399169624    -1.587552    -0.363861    -1.088555
F    0.888657327    1.636514043    -0.415056911    3.878143    0.869593    1.64916
F    -0.295120175    2.858628397    2.001324947    0.790543    2.68793    0.355601
F    0.485593115    -0.495366058    2.134751645    1.826808    -2.10697    0.447047
F    -4.213822692    0.29819027    -0.669219565    1.087337    0.211514    -1.231094
F    0.869142427    1.508171137    -3.393591829    2.503644    0.509691    -1.646025
