------------------------------------------------------------
          Invoking FHI-aims ...

          When using FHI-aims, please cite the following reference:

            Volker Blum, Ralf Gehrke, Felix Hanke, Paula Havu,
            Ville Havu, Xinguo Ren, Karsten Reuter, and Matthias Scheffler,
            'Ab Initio Molecular Simulations with Numeric Atom-Centered Orbitals',
            Computer Physics Communications 180, 2175-2196 (2009)

          In addition, many other developments in FHI-aims are likely important for
          your particular application. A partial list of references is given at the end of
          this file. Thank you for giving credit to the authors of these developments.

          For any questions about FHI-aims, please visit our slack channel at

            https://fhi-aims.slack.com

          and our main development and support site at

            https://aims-git.rz-berlin.mpg.de .

          The latter site, in particular, has a wiki to collect information, as well
          as an issue tracker to log discussions, suggest improvements, and report issues
          or bugs. https://aims-git.rz-berlin.mpg.de is also the main development site
          of the project and all new and updated code versions can be obtained there.
          Please send an email to aims-coordinators@fhi-berlin.mpg.de and we will add
          you to these sites. They are for you and everyone is welcome there.

------------------------------------------------------------



  Date     :  20220517, Time     :  115854.842
  Time zero on CPU 1             :   0.445180000000000E-01  s.
  Internal wall clock time zero  :           422020734.842  s.

  FHI-aims created a unique identifier for this run for later identification
  aims_uuid : F17F8F23-67C8-4C67-A07C-3BA3C8340E0A

  Build configuration of the current instance of FHI-aims
  -------------------------------------------------------
  FHI-aims version      : 210914
  Commit number         : GITDIR-NOTFOUND
  CMake host system     : Linux-3.10.0-693.17.1.el7.x86_64
  CMake version         : 3.21.1
  Fortran compiler      : /shared/ucl/apps/intel/2018.Update3/impi/2018.3.222/intel64/bin/mpiifort (Intel) version 18.0.3.20180410
  Fortran compiler flags: -O3 -ip -fp-model precise
  C compiler            : /shared/ucl/apps/intel/2018.Update3/compilers_and_libraries_2018.3.222/linux/bin/intel64/icc (Intel) version 18.0.3.20180410
  C compiler flags      : -O3 -ip -fp-model precise -std=gnu99
  ELPA2 kernel          : AVX2
  Using MPI
  Using ScaLAPACK
  Using LibXC
  Using i-PI
  Using RLSY
  Linking against: /shared/ucl/apps/intel/2019.Update5/compilers_and_libraries_2019.5.281/linux/mkl/lib/intel64/libmkl_intel_lp64.so
                   /shared/ucl/apps/intel/2019.Update5/compilers_and_libraries_2019.5.281/linux/mkl/lib/intel64/libmkl_sequential.so
                   /shared/ucl/apps/intel/2019.Update5/compilers_and_libraries_2019.5.281/linux/mkl/lib/intel64/libmkl_core.so
                   /shared/ucl/apps/intel/2019.Update5/compilers_and_libraries_2019.5.281/linux/mkl/lib/intel64/libmkl_blacs_intelmpi_lp64.so
                   /shared/ucl/apps/intel/2019.Update5/compilers_and_libraries_2019.5.281/linux/mkl/lib/intel64/libmkl_scalapack_lp64.so

  Using       24 parallel tasks.
  Task        0 on host node-k98a-028 reporting.
  Task        1 on host node-k98a-028 reporting.
  Task        2 on host node-k98a-028 reporting.
  Task        3 on host node-k98a-028 reporting.
  Task        4 on host node-k98a-028 reporting.
  Task        5 on host node-k98a-028 reporting.
  Task        6 on host node-k98a-028 reporting.
  Task        7 on host node-k98a-028 reporting.
  Task        8 on host node-k98a-028 reporting.
  Task        9 on host node-k98a-028 reporting.
  Task       10 on host node-k98a-028 reporting.
  Task       11 on host node-k98a-028 reporting.
  Task       12 on host node-k98a-028 reporting.
  Task       13 on host node-k98a-028 reporting.
  Task       14 on host node-k98a-028 reporting.
  Task       15 on host node-k98a-028 reporting.
  Task       16 on host node-k98a-028 reporting.
  Task       17 on host node-k98a-028 reporting.
  Task       18 on host node-k98a-028 reporting.
  Task       19 on host node-k98a-028 reporting.
  Task       20 on host node-k98a-028 reporting.
  Task       21 on host node-k98a-028 reporting.
  Task       22 on host node-k98a-028 reporting.
  Task       23 on host node-k98a-028 reporting.

  Performing system and environment tests:
  | Environment variable OMP_NUM_THREADS correctly set to 1.
  | Checking for ScaLAPACK...
  | Testing pdtran()...
  | All pdtran() tests passed.

  Obtaining array dimensions for all initial allocations:
  
  -----------------------------------------------------------------------
  Parsing control.in (first pass over file, find array dimensions only).
  The contents of control.in will be repeated verbatim below
  unless switched off by setting 'verbatim_writeout .false.' .
  in the first line of control.in .
  -----------------------------------------------------------------------
  
  #########################################################################################  Physical model
  #########################################################################################
  xc                 pbesol
  spin               none
  relativistic       atomic_zora scalar
  charge             0.0
  #  SCF convergence
  occupation_type    gaussian 0.01
  mixer              pulay
  n_max_pulay        10
  charge_mix_param   0.5
  sc_accuracy_rho    1E-5
  sc_accuracy_eev    1E-3
  sc_accuracy_etot   1E-6
  sc_accuracy_forces 1E-4
  sc_iter_limit      1500
  #  Relaxation
  #relax_geometry   bfgs 1.e-3
  
  ################################################################################
  #
  #  FHI-aims code project
  #  VB, Fritz-Haber Institut, 2009
  #
  #  Suggested "light" defaults for Al atom (to be pasted into control.in file)
  #  Be sure to double-check any results obtained with these settings for post-processing,
  #  e.g., with the "tight" defaults and larger basis sets.
  #
  ################################################################################
    species        Al
  #     global species definitions
      nucleus             13
      mass                26.9815386
  #
      l_hartree           4
  #
      cut_pot             3.5          1.5  1.0
      basis_dep_cutoff    1e-4
  #
      radial_base         41 5.0
      radial_multiplier   1
      angular_grids       specified
        division   0.6594  110
        division   0.8170  194
        division   0.9059  302
  #      division   1.0363  434
  #      division   1.1443  590
  #      division   1.2621  770
  #      division   2.8177  974
  #      outer_grid   974
        outer_grid   302
  ################################################################################
  #
  #  Definition of "minimal" basis
  #
  ################################################################################
  #     valence basis states
      valence      3  s   2.
      valence      3  p   1.
  #     ion occupancy
      ion_occ      3  s   1.
      ion_occ      2  p   6.
  ################################################################################
  #
  #  Suggested additional basis functions. For production calculations,
  #  uncomment them one after another (the most important basis functions are
  #  listed first).
  #
  #  Constructed for dimers: 2.0 A, 2.5 A, 3.0 A, 3.75 A, 4.5 A
  #
  ################################################################################
  #  "First tier" - improvements: -199.47 meV to -10.63 meV
       ionic 3 d auto
       ionic 3 p auto
  #     hydro 4 f 4.7
       ionic 3 s auto
  #  "Second tier" - improvements: -5.35 meV to -1.57 meV
  #     hydro 5 g 7
  #     hydro 3 d 6
  #     hydro 2 s 11.6
  #     hydro 2 p 0.9
  #  "Third tier" - improvements: -0.63 meV to -0.20 meV
  #     hydro 5 f 7.6
  #     hydro 4 p 7.2
  #     hydro 4 s 3.7
  #     hydro 4 d 7.6
  #  "Fourth tier" - improvements: -0.17 meV to -0.08 meV
  #     hydro 4 d 13.6
  #     hydro 5 g 11.2
  #     hydro 4 d 0.9
  #     hydro 1 s 0.4
  #     hydro 4 p 0.1
  #     hydro 5 f 9.8
  #  Further basis functions that fell out of the optimization - noise level...
  #     hydro 4 p 5
  
  ################################################################################
  #
  #  FHI-aims code project
  #  VB, Fritz-Haber Institut, 2009
  #
  #  Suggested "light" defaults for F atom (to be pasted into control.in file)
  #  Be sure to double-check any results obtained with these settings for post-processing,
  #  e.g., with the "tight" defaults and larger basis sets.
  #
  ################################################################################
    species        F
  #     global species definitions
      nucleus             9
      mass                18.9984032
  #
      l_hartree           4
  #
      cut_pot             3.5  1.5  1.0
      basis_dep_cutoff    1e-4
  #
      radial_base         37 5.0
      radial_multiplier   1
      angular_grids specified
        division   0.4014  110
        division   0.5291  194
        division   0.6019  302
  #      division   0.6814  434
  #      division   0.7989  590
  #      division   0.8965  770
  #      division   1.3427  974
  #      outer_grid   974
        outer_grid   302
  ################################################################################
  #
  #  Definition of "minimal" basis
  #
  ################################################################################
  #     valence basis states
      valence      2  s   2.
      valence      2  p   5.
  #     ion occupancy
      ion_occ      2  s   1.
      ion_occ      2  p   4.
  ################################################################################
  #
  #  Suggested additional basis functions. For production calculations,
  #  uncomment them one after another (the most important basis functions are
  #  listed first).
  #
  #  Constructed for dimers: 1.2 A, 1.418 A, 1.75 A, 2.25 A, 3.25 A
  #
  ################################################################################
  #  "First tier" - improvements: -149.44 meV to -45.88 meV
       hydro 2 p 1.7
       hydro 3 d 7.4
       hydro 3 s 6.8
  #  "Second tier" - improvements: -12.96 meV to -1.56 meV
  #     hydro 4 f 11.2
  #     ionic 2 p auto
  #     hydro 1 s 0.75
  #     hydro 4 d 8.8
  #     hydro 5 g 16.8
  #  "Third tier" - improvements: -0.58 meV to -0.05 meV
  #     hydro 3 p 6.2
  #     hydro 3 s 3.2
  #     hydro 4 f 9.6
  #     hydro 3 s 19.6
  #     hydro 4 d 8.6
  #     hydro 5 g 14.4
  # Further basis functions: -0.05 meV and below
  #     hydro 3 p 4.2
  
  -----------------------------------------------------------------------
  Completed first pass over input file control.in .
  -----------------------------------------------------------------------
  
  
  -----------------------------------------------------------------------
  Parsing geometry.in (first pass over file, find array dimensions only).
  The contents of geometry.in will be repeated verbatim below
  unless switched off by setting 'verbatim_writeout .false.' .
  in the first line of geometry.in .
  -----------------------------------------------------------------------
  
  atom -0.656094038 0.966637160 -2.004736336 Al
  atom -0.491965781 1.064288491 1.255524601 Al
  atom -3.399107703 0.373490078 -2.022103609 Al
  atom -3.418811855 0.345832936 -3.248916561 F
  atom -1.220052958 -0.514608504 -1.831738938 F
  atom -1.782568293 2.088201389 -1.881380761 F
  atom -1.976219777 0.728773855 0.482610109 F
  atom 0.712268416 1.299618897 -0.051480775 F
  atom -0.297303381 2.767967204 1.999417371 F
  atom 0.382760808 -0.378756071 2.059430158 F
  atom -4.099953367 0.246332126 -0.747604913 F
  atom 0.795591019 1.256026103 -3.281314844 F
  
  -----------------------------------------------------------------------
  Completed first pass over input file geometry.in .
  -----------------------------------------------------------------------
  

  Basic array size parameters:
  | Number of species                 :        2
  | Number of atoms                   :       12
  | Max. basis fn. angular momentum   :        2
  | Max. atomic/ionic basis occupied n:        3
  | Max. number of basis fn. types    :        3
  | Max. radial fns per species/type  :        5
  | Max. logarithmic grid size        :     1340
  | Max. radial integration grid size :       41
  | Max. angular integration grid size:      302
  | Max. angular grid division number :        8
  | Radial grid for Hartree potential :     1340
  | Number of spin channels           :        1

------------------------------------------------------------
          Reading file control.in.
------------------------------------------------------------
  XC: Using PBEsol gradient-corrected functionals.
  Spin treatment: No spin polarisation.
  Scalar relativistic treatment of kinetic energy: on-site free-atom approximation to ZORA.
  Charge =   0.000000E+00: Neutral system requested explicitly.
  Occupation type: Gaussian broadening, width =   0.100000E-01 eV.
  Using pulay charge density mixing.
  Pulay mixing - number of memorized iterations:   10
  Charge density mixing - mixing parameter:     0.5000
  Convergence accuracy of self-consistent charge density:  0.1000E-04
  Convergence accuracy of sum of eigenvalues:  0.1000E-02
  Convergence accuracy of total energy:  0.1000E-05
  Convergence accuracy of forces:  0.1000E-03
  Maximum number of s.-c. iterations  :  1500
 
  Reading configuration options for species Al                  .
  | Found nuclear charge :  13.0000
  | Found atomic mass :    26.9815386000000      amu
  | Found l_max for Hartree potential  :   4
  | Found cutoff potl. onset [A], width [A], scale factor :    3.50000    1.50000    1.00000
  | Threshold for basis-dependent cutoff potential is   0.100000E-03
  | Found data for basic radial integration grid :    41 points, outermost radius =    5.000 A
  | Found multiplier for basic radial grid :   1
  | Found angular grid specification: user-specified.
  | Specified grid contains     4 separate shells.
  | Check grid settings after all constraints further below.
  | Found free-atom valence shell :  3 s   2.000
  | Found free-atom valence shell :  3 p   1.000
  | Found free-ion valence shell :  3 s   1.000
  | Found free-ion valence shell :  2 p   6.000
  | Found ionic basis function :  3 d , default cutoff radius.
  | Found ionic basis function :  3 p , default cutoff radius.
  | Found ionic basis function :  3 s , default cutoff radius.
  Species Al                  : Missing cutoff potential type.
  Defaulting to exp(1/x)/(1-x)^2 type cutoff potential.
  Species Al: No 'logarithmic' tag. Using default grid for free atom:
  | Default logarithmic grid data [bohr] : 0.1000E-03 0.1000E+03 0.1012E+01
  | Will include ionic basis functions of  2.0-fold positive Al                   ion.
  Species Al: On-site basis accuracy parameter (for Gram-Schmidt orthonormalisation) not specified.
  Using default value basis_acc =  0.1000000E-03.
  Species Al                  : Using default innermost maximum threshold i_radial=  2 for radial functions.
  Species Al                  : Default cutoff onset for free atom density etc. : 0.35000000E+01 AA.
  Species Al                  : Basic radial grid will be enhanced according to radial_multiplier =   1, to contain    41 grid points.
 
  Reading configuration options for species F                   .
  | Found nuclear charge :   9.0000
  | Found atomic mass :    18.9984032000000      amu
  | Found l_max for Hartree potential  :   4
  | Found cutoff potl. onset [A], width [A], scale factor :    3.50000    1.50000    1.00000
  | Threshold for basis-dependent cutoff potential is   0.100000E-03
  | Found data for basic radial integration grid :    37 points, outermost radius =    5.000 A
  | Found multiplier for basic radial grid :   1
  | Found angular grid specification: user-specified.
  | Specified grid contains     4 separate shells.
  | Check grid settings after all constraints further below.
  | Found free-atom valence shell :  2 s   2.000
  | Found free-atom valence shell :  2 p   5.000
  | Found free-ion valence shell :  2 s   1.000
  | Found free-ion valence shell :  2 p   4.000
  | Found hydrogenic basis function :  2 p   1.700
  | Found hydrogenic basis function :  3 d   7.400
  | Found hydrogenic basis function :  3 s   6.800
  Species F                   : Missing cutoff potential type.
  Defaulting to exp(1/x)/(1-x)^2 type cutoff potential.
  Species F : No 'logarithmic' tag. Using default grid for free atom:
  | Default logarithmic grid data [bohr] : 0.1000E-03 0.1000E+03 0.1012E+01
  Species F : On-site basis accuracy parameter (for Gram-Schmidt orthonormalisation) not specified.
  Using default value basis_acc =  0.1000000E-03.
  Species F                   : Using default innermost maximum threshold i_radial=  2 for radial functions.
  Species F                   : Default cutoff onset for free atom density etc. : 0.35000000E+01 AA.
  Species F                   : Basic radial grid will be enhanced according to radial_multiplier =   1, to contain    37 grid points.
 
  Finished reading input file 'control.in'.
 
------------------------------------------------------------


------------------------------------------------------------
          Reading geometry description geometry.in.
------------------------------------------------------------
  | The smallest distance between any two atoms is         1.22728285 AA.
  | The first atom of this pair is atom number                      3 .
  | The second atom of this pair is atom number                     4 .
  Input structure read successfully.
  The structure contains       12 atoms,  and a total of        120.000 electrons.

  Input geometry:
  | No unit cell requested.
  | Atomic structure:
  |       Atom                x [A]            y [A]            z [A]
  |    1: Species Al           -0.65609404        0.96663716       -2.00473634
  |    2: Species Al           -0.49196578        1.06428849        1.25552460
  |    3: Species Al           -3.39910770        0.37349008       -2.02210361
  |    4: Species F            -3.41881185        0.34583294       -3.24891656
  |    5: Species F            -1.22005296       -0.51460850       -1.83173894
  |    6: Species F            -1.78256829        2.08820139       -1.88138076
  |    7: Species F            -1.97621978        0.72877386        0.48261011
  |    8: Species F             0.71226842        1.29961890       -0.05148077
  |    9: Species F            -0.29730338        2.76796720        1.99941737
  |   10: Species F             0.38276081       -0.37875607        2.05943016
  |   11: Species F            -4.09995337        0.24633213       -0.74760491
  |   12: Species F             0.79559102        1.25602610       -3.28131484

 
  Finished reading input file 'control.in'.
 

------------------------------------------------------------
          Reading geometry description geometry.in.
------------------------------------------------------------
 
  Consistency checks for stacksize environment parameter are next.
 
  | Maximum stacksize for task 0: unlimited
  | Maximum stacksize for task 1: unlimited
  | Maximum stacksize for task 2: unlimited
  | Maximum stacksize for task 3: unlimited
  | Maximum stacksize for task 4: unlimited
  | Maximum stacksize for task 5: unlimited
  | Maximum stacksize for task 6: unlimited
  | Maximum stacksize for task 7: unlimited
  | Maximum stacksize for task 8: unlimited
  | Maximum stacksize for task 9: unlimited
  | Maximum stacksize for task 10: unlimited
  | Maximum stacksize for task 11: unlimited
  | Maximum stacksize for task 12: unlimited
  | Maximum stacksize for task 13: unlimited
  | Maximum stacksize for task 14: unlimited
  | Maximum stacksize for task 15: unlimited
  | Maximum stacksize for task 16: unlimited
  | Maximum stacksize for task 17: unlimited
  | Maximum stacksize for task 18: unlimited
  | Maximum stacksize for task 19: unlimited
  | Maximum stacksize for task 20: unlimited
  | Maximum stacksize for task 21: unlimited
  | Maximum stacksize for task 22: unlimited
  | Maximum stacksize for task 23: unlimited
  | Current stacksize for task 0: unlimited
  | Current stacksize for task 1: unlimited
  | Current stacksize for task 2: unlimited
  | Current stacksize for task 3: unlimited
  | Current stacksize for task 4: unlimited
  | Current stacksize for task 5: unlimited
  | Current stacksize for task 6: unlimited
  | Current stacksize for task 7: unlimited
  | Current stacksize for task 8: unlimited
  | Current stacksize for task 9: unlimited
  | Current stacksize for task 10: unlimited
  | Current stacksize for task 11: unlimited
  | Current stacksize for task 12: unlimited
  | Current stacksize for task 13: unlimited
  | Current stacksize for task 14: unlimited
  | Current stacksize for task 15: unlimited
  | Current stacksize for task 16: unlimited
  | Current stacksize for task 17: unlimited
  | Current stacksize for task 18: unlimited
  | Current stacksize for task 19: unlimited
  | Current stacksize for task 20: unlimited
  | Current stacksize for task 21: unlimited
  | Current stacksize for task 22: unlimited
  | Current stacksize for task 23: unlimited
 
  Consistency checks for the contents of control.in are next.
 
  MPI_IN_PLACE appears to work with this MPI implementation.
  | Keeping use_mpi_in_place .true. (see manual).
  Target number of points in a grid batch is not set. Defaulting to  100
  Method for grid partitioning is not set. Defaulting to parallel hash+maxmin partitioning.
  Batch size limit is not set. Defaulting to    200
  By default, will store active basis functions for each batch.
  If in need of memory, prune_basis_once .false. can be used to disable this option.
  communication_type for Hartree potential was not specified.
  Defaulting to calc_hartree .
  Pulay mixer: Number of initial linear mixing iterations not set.
  Defaulting to    0 iterations.
  Work space size for distributed Hartree potential not set.
  Defaulting to   0.200000E+03 MB.
  Algorithm-dependent basis array size parameters:
  | n_max_pulay                         :       10
  Presetting      1001 iterations before the initial mixing cycle
  is restarted anyway using the sc_init_iter criterion / keyword.
  Presetting a factor      1.000 between actual scf density residual
  and density convergence criterion sc_accuracy_rho below which sc_init_iter
  takes no effect.
  Geometry relaxation not requested: no relaxation will be performed.
  Forces evaluation will include force correction term due to incomplete self-consistency (default).
  Handling of forces: Unphysical translation and rotation will be removed from forces.
  No accuracy limit for integral partition fn. given. Defaulting to  0.1000E-14.
  No threshold value for u(r) in integrations given. Defaulting to  0.1000E-05.
  No accuracy for occupation numbers given. Defaulting to  0.1000E-12.
  No threshold value for occupation numbers given. Defaulting to  0.0000E+00.
  No accuracy for fermi level given. Defaulting to  0.1000E-19.
  Maximum # of iterations to find E_F not set. Defaulting to  200.
  Preferred method for the eigenvalue solver ('KS_method') not specified in 'control.in'.
  Calling BLACS routine to test compilation state
  Since ScaLAPACK support is enabled, defaulting to ELPA (via ELSI).
  Will not use alltoall communication since running on < 1024 CPUs.
  Threshold for basis singularities not set.
  Default threshold for basis singularities:  0.1000E-04
  partition_type (choice of integration weights) for integrals was not specified.
  | Using a version of the partition function of Stratmann and coworkers ('stratmann_sparse').
  | At each grid point, the set of atoms used to build the partition table is smoothly restricted to
  | only those atoms whose free-atom density would be non-zero at that grid point.
  Partitioning for Hartree potential was not defined. Using partition_type for integrals.
  | Adjusted default value of keyword multip_moments_threshold to:       0.10000000E-11
  | This value may affect high angular momentum components of the Hartree potential in periodic systems.
  No q(lm)/r^(l+1) cutoff set for long-range Hartree potential.
  | Using default value of  0.100000E-09 .
  | Verify using the multipole_threshold keyword.
  Defaulting to new monopole extrapolation.
  Density update method: automatic selection selected.
  Charge integration errors on the 3D integration grid will be compensated
  by explicit normalization and distribution of residual charges.
  Use the "compensate_multipole_errors" flag to change this behaviour.
  Set 'collect_eigenvectors' to be '.true.' for use_density_matrix .false.
 
  Consistency checks for the contents of geometry.in are next.
 
  Number of empty states per atom not set in control.in - providing a guess from actual geometry.
  | Total number of empty states used during s.c.f. cycle:       36
  If you use a very high smearing, use empty_states (per atom!) in control.in to increase this value.

  Structure-dependent array size parameters: 
  | Maximum number of distinct radial functions  :       14
  | Maximum number of basis functions            :      180
  | Number of Kohn-Sham states (occupied + empty):       96
------------------------------------------------------------

------------------------------------------------------------
          Preparing all fixed parts of the calculation.
------------------------------------------------------------
  Determining machine precision:
    2.225073858507201E-308
  Setting up grids for atomic and cluster calculations.

  Creating wave function, potential, and density for free atoms.

  Species: Al

  List of occupied orbitals and eigenvalues:
    n    l              occ      energy [Ha]    energy [eV]
    1    0           2.0000       -55.621123     -1513.5278
    2    0           2.0000        -3.957030      -107.6763
    3    0           2.0000        -0.272233        -7.4078
    2    1           6.0000        -2.540949       -69.1427
    3    1           1.0000        -0.083300        -2.2667


  Species: F

  List of occupied orbitals and eigenvalues:
    n    l              occ      energy [Ha]    energy [eV]
    1    0           2.0000       -24.399611      -663.9472
    2    0           2.0000        -1.098702       -29.8972
    2    1           5.0000        -0.408210       -11.1080


  Adding cutoff potential to free-atom effective potential.
  Creating fixed part of basis set: Ionic, confined, hydrogenic.
 
  Al                   ion:

  List of free ionic orbitals and eigenvalues:
    n    l      energy [Ha]    energy [eV]
    1    0       -56.418846     -1535.2349
    2    0        -4.732717      -128.7838
    3    0        -0.872690       -23.7471
    2    1        -3.317230       -90.2664


  List of ionic basis orbitals and eigenvalues:
    n    l      energy [Ha]    energy [eV]    outer radius [A]
    3    2        -0.346815        -9.4373       4.594041
    3    1        -0.631870       -17.1940       4.538221
    3    0        -0.872657       -23.7462       4.538221

 
  F                    hydrogenic:
 
  List of hydrogenic basis orbitals: 
    n    l      effective z      eigenvalue [eV]  inner max. [A]     outer max. [A]     outer radius [A]   
    2    1         1.700000        -9.7616           1.243167           1.243167           4.598524
    3    2         7.400000       -82.7828           0.642437           0.642437           3.305741
    3    0         6.800000       -69.9026           0.057798           1.022307           3.781556
 
  Creating atomic-like basis functions for current effective potential.

  Species Al                  :

  List of atomic basis orbitals and eigenvalues:
    n    l      energy [Ha]    energy [eV]    outer radius [A]
    1    0       -55.621123     -1513.5278       0.850197
    2    0        -3.957030      -107.6763       3.144911
    3    0        -0.272233        -7.4078       4.594041
    2    1        -2.540949       -69.1427       3.731966
    3    1        -0.083300        -2.2667       4.594041


  Species F                   :

  List of atomic basis orbitals and eigenvalues:
    n    l      energy [Ha]    energy [eV]    outer radius [A]
    1    0       -24.399611      -663.9472       1.258458
    2    0        -1.098702       -29.8972       4.325857
    2    1        -0.408210       -11.1080       4.487453

  Assembling full basis from fixed parts.
  | Species Al :   atomic orbital   1 s accepted.
  | Species Al :   atomic orbital   2 s accepted.
  | Species Al :    ionic orbital   3 s accepted.
  | Species Al :   atomic orbital   3 s accepted.
  | Species Al :   atomic orbital   2 p accepted.
  | Species Al :    ionic orbital   3 p accepted.
  | Species Al :   atomic orbital   3 p accepted.
  | Species Al :    ionic orbital   3 d accepted.
  | Species F :   atomic orbital   1 s accepted.
  | Species F :    hydro orbital   3 s accepted.
  | Species F :   atomic orbital   2 s accepted.
  | Species F :   atomic orbital   2 p accepted.
  | Species F :    hydro orbital   2 p accepted.
  | Species F :    hydro orbital   3 d accepted.
 
  Basis size parameters after reduction:
  | Total number of radial functions:       14
  | Total number of basis functions :      180
 
  Per-task memory consumption for arrays in subroutine allocate_ext:
  |           4.807768MB.
  Testing on-site integration grid accuracy.
  |  Species  Function  <phi|h_atom|phi> (log., in eV)  <phi|h_atom|phi> (rad., in eV)
           1        1              -1513.5277717935              -1513.5271881332
           1        2               -107.6762691836               -107.6762662489
           1        3                 -6.9467474784                 -6.9471269649
           1        4                  5.5771951849                  5.4862107220 ***
           1        5                -69.1427313144                -69.1427312731
           1        6                 -1.5197375330                 -1.5230432022
           1        7                  6.8210948310                  6.5529872240 ***
           1        8                  4.3216540965                  4.2851170187 ***
           2        9               -663.9471986398               -663.9470363334
           2       10                 16.8514011578                 16.8512525338
           2       11                -28.4490593856                -28.4490661472
           2       12                -11.1080115307                -11.1080620173
           2       13                  7.1940182175                  7.1685154137
           2       14                 44.8544281765                 44.8543763625
 * Note: Onsite integrals marked "***" above are less accurate than
 * onsite_accuracy_threshold =    0.03000 eV. Usually, this is harmless.
 * When in doubt, tighten the "radial" and/or "radial_multiplier" flags to check.

  Preparing densities etc. for the partition functions (integrals / Hartree potential).

  Preparations completed.
  max(cpu_time)          :      0.184 s.
  Wall clock time (cpu1) :      0.184 s.
------------------------------------------------------------

------------------------------------------------------------
          Begin self-consistency loop: Initialization.

          Date     :  20220517, Time     :  115855.071
------------------------------------------------------------

  Initializing index lists of integration centers etc. from given atomic structure:
  | Number of centers in hartree potential         :        12
  | Number of centers in hartree multipole         :        12
  | Number of centers in electron density summation:        12
  | Number of centers in basis integrals           :        12
  | Number of centers in integrals                 :        12
  | Number of centers in hamiltonian               :        12
  * Using 24 tasks for Scalapack Eigenvalue solver.
  Detailed listing of tasks and assigned k-points:
  (for non-periodic systems, the "k-point" denotes an internal label only)
   Task     0 k-point     1 on node-k98a-028
   Task     1 k-point     1 on node-k98a-028
   Task     2 k-point     1 on node-k98a-028
   Task     3 k-point     1 on node-k98a-028
   Task     4 k-point     1 on node-k98a-028
   Task     5 k-point     1 on node-k98a-028
   Task     6 k-point     1 on node-k98a-028
   Task     7 k-point     1 on node-k98a-028
   Task     8 k-point     1 on node-k98a-028
   Task     9 k-point     1 on node-k98a-028
   Task    10 k-point     1 on node-k98a-028
   Task    11 k-point     1 on node-k98a-028
   Task    12 k-point     1 on node-k98a-028
   Task    13 k-point     1 on node-k98a-028
   Task    14 k-point     1 on node-k98a-028
   Task    15 k-point     1 on node-k98a-028
   Task    16 k-point     1 on node-k98a-028
   Task    17 k-point     1 on node-k98a-028
   Task    18 k-point     1 on node-k98a-028
   Task    19 k-point     1 on node-k98a-028
   Task    20 k-point     1 on node-k98a-028
   Task    21 k-point     1 on node-k98a-028
   Task    22 k-point     1 on node-k98a-028
   Task    23 k-point     1 on node-k98a-028
  Tasks:    24 split into      6 X      4 BLACS grid
  Calculating block size based on n_basis =          180  max_nprow =            6  max_npcol =            4
  ScaLAPACK block size set to:           16
  Allocating        0.012 MB for ovlp
  Allocating        0.012 MB for ham
  Allocating        0.012 MB for eigenvec
  Required Scalapack workspace - INTEGER:            1  REAL:             1
  Partitioning the integration grid into batches with parallel hashing+maxmin method.
  | Number of batches:     1011
  | Maximal batch size:     199
  | Minimal batch size:      17
  | Average batch size:      90.920
  | Standard deviation of batch sizes:      30.888

  Integration load balanced across    24 MPI tasks.
  Work distribution over tasks is as follows:
  Task     0 has       3808 integration points.
  Task     1 has       3792 integration points.
  Task     2 has       3867 integration points.
  Task     3 has       3770 integration points.
  Task     4 has       3842 integration points.
  Task     5 has       3893 integration points.
  Task     6 has       3837 integration points.
  Task     7 has       3859 integration points.
  Task     8 has       3748 integration points.
  Task     9 has       3754 integration points.
  Task    10 has       3786 integration points.
  Task    11 has       3808 integration points.
  Task    12 has       3839 integration points.
  Task    13 has       3927 integration points.
  Task    14 has       3862 integration points.
  Task    15 has       3891 integration points.
  Task    16 has       3870 integration points.
  Task    17 has       3898 integration points.
  Task    18 has       3871 integration points.
  Task    19 has       3767 integration points.
  Task    20 has       3846 integration points.
  Task    21 has       3801 integration points.
  Task    22 has       3764 integration points.
  Task    23 has       3820 integration points.
  Initializing partition tables, free-atom densities, potentials, etc. across the integration grid (initialize_grid_storage).
  | initialize_grid_storage: Actual outermost partition radius vs. multipole_radius_free
  | (-- VB: in principle, multipole_radius_free should be larger, hence this output)
  | Species        1: Confinement radius =              4.999999999999999 AA, multipole_radius_free =              5.004487022111096 AA.
  | Species        1: outer_partition_radius set to              5.004487022111096 AA .
  | Species        2: Confinement radius =              4.999999999999999 AA, multipole_radius_free =              5.009370088163274 AA.
  | Species        2: outer_partition_radius set to              5.009370088163274 AA .
  | The sparse table of interatomic distances needs          1.64 kbyte instead of         1.15 kbyte of memory.
  | Using the partition_type stratmann_smoother will reduce your memory usage.
  | Net number of integration points:    91920
  | of which are non-zero points    :    85362
  Renormalizing the initial density to the exact electron count on the 3D integration grid.
  | Initial density: Formal number of electrons (from input files) :     120.0000000000
  | Integrated number of electrons on 3D grid     :     119.9999167264
  | Charge integration error                      :      -0.0000832736
  | Normalization factor for density and gradient :       1.0000006939
  Renormalizing the free-atom superposition density to the exact electron count on the 3D integration grid.
  | Formal number of electrons (from input files) :     120.0000000000
  | Integrated number of electrons on 3D grid     :     119.9999167264
  | Charge integration error                      :      -0.0000832736
  | Normalization factor for density and gradient :       1.0000006939
  Obtaining max. number of non-zero basis functions in each batch (get_n_compute_maxes).
  | Maximal number of non-zero basis functions:      159 in task     0
  | Maximal number of non-zero basis functions:      163 in task     1
  | Maximal number of non-zero basis functions:      165 in task     2
  | Maximal number of non-zero basis functions:      165 in task     3
  | Maximal number of non-zero basis functions:      170 in task     4
  | Maximal number of non-zero basis functions:      169 in task     5
  | Maximal number of non-zero basis functions:      165 in task     6
  | Maximal number of non-zero basis functions:      163 in task     7
  | Maximal number of non-zero basis functions:      171 in task     8
  | Maximal number of non-zero basis functions:      163 in task     9
  | Maximal number of non-zero basis functions:      165 in task    10
  | Maximal number of non-zero basis functions:      163 in task    11
  | Maximal number of non-zero basis functions:      165 in task    12
  | Maximal number of non-zero basis functions:      170 in task    13
  | Maximal number of non-zero basis functions:      169 in task    14
  | Maximal number of non-zero basis functions:      171 in task    15
  | Maximal number of non-zero basis functions:      165 in task    16
  | Maximal number of non-zero basis functions:      163 in task    17
  | Maximal number of non-zero basis functions:      164 in task    18
  | Maximal number of non-zero basis functions:      165 in task    19
  | Maximal number of non-zero basis functions:      171 in task    20
  | Maximal number of non-zero basis functions:      164 in task    21
  | Maximal number of non-zero basis functions:      165 in task    22
  | Maximal number of non-zero basis functions:      171 in task    23
  Selecting the method for density update.
  Loop over occupied states selected for charge density update.
  Allocating        0.132 MB for KS_eigenvector
  Integrating Hamiltonian matrix: batch-based integration.
  Time summed over all CPUs for integration: real work        0.699 s, elapsed        0.738 s
  Integrating overlap matrix.
  Time summed over all CPUs for integration: real work        0.276 s, elapsed        0.297 s
  Deallocating overlap matrix.

  Updating Kohn-Sham eigenvalues and eigenvectors using ELSI and the ELPA eigensolver.
  Overlap matrix is not singular
  | Lowest and highest eigenvalues :  0.5341E-02,  0.5177E+01
  Finished singularity check of overlap matrix
  | Time :     0.003 s
  Starting ELPA eigensolver
  Finished Cholesky decomposition
  | Time :     0.001 s
  Finished transformation to standard eigenproblem
  | Time :     0.001 s
  Finished solving standard eigenproblem
  | Time :     0.003 s
  Finished back-transformation of eigenvectors
  | Time :     0.001 s

  Obtaining occupation numbers and chemical potential using ELSI.
  | Chemical potential (Fermi level):    -7.93990580 eV
  Writing Kohn-Sham eigenvalues.

  State    Occupation    Eigenvalue [Ha]    Eigenvalue [eV]
      1       2.00000         -55.508167        -1510.45407
      2       2.00000         -55.487799        -1509.89982
      3       2.00000         -55.483918        -1509.79423
      4       2.00000         -24.522426         -667.28916
      5       2.00000         -24.413469         -664.32430
      6       2.00000         -24.384102         -663.52518
      7       2.00000         -24.384102         -663.52518
      8       2.00000         -24.358038         -662.81594
      9       2.00000         -24.349501         -662.58363
     10       2.00000         -24.334822         -662.18420
     11       2.00000         -24.334822         -662.18420
     12       2.00000         -24.327212         -661.97713
     13       2.00000          -3.991753         -108.62114
     14       2.00000          -3.955562         -107.63632
     15       2.00000          -3.949477         -107.47074
     16       2.00000          -2.618625          -71.25640
     17       2.00000          -2.572254          -69.99458
     18       2.00000          -2.569182          -69.91099
     19       2.00000          -2.551185          -69.42127
     20       2.00000          -2.548255          -69.34155
     21       2.00000          -2.544131          -69.22932
     22       2.00000          -2.542631          -69.18850
     23       2.00000          -2.540911          -69.14172
     24       2.00000          -2.540842          -69.13984
     25       2.00000          -1.331449          -36.23058
     26       2.00000          -1.239137          -33.71864
     27       2.00000          -1.215364          -33.07174
     28       2.00000          -1.204921          -32.78758
     29       2.00000          -1.175659          -31.99131
     30       2.00000          -1.163397          -31.65765
     31       2.00000          -1.140854          -31.04422
     32       2.00000          -1.139831          -31.01638
     33       2.00000          -1.129713          -30.74105
     34       2.00000          -0.630390          -17.15379
     35       2.00000          -0.626385          -17.04481
     36       2.00000          -0.623400          -16.96357
     37       2.00000          -0.564703          -15.36636
     38       2.00000          -0.562915          -15.31770
     39       2.00000          -0.551301          -15.00167
     40       2.00000          -0.536561          -14.60058
     41       2.00000          -0.530776          -14.44314
     42       2.00000          -0.527692          -14.35924
     43       2.00000          -0.523137          -14.23528
     44       2.00000          -0.516211          -14.04682
     45       2.00000          -0.501834          -13.65559
     46       2.00000          -0.500084          -13.60797
     47       2.00000          -0.498947          -13.57704
     48       2.00000          -0.486163          -13.22917
     49       2.00000          -0.485269          -13.20485
     50       2.00000          -0.476418          -12.96399
     51       2.00000          -0.468853          -12.75815
     52       2.00000          -0.466043          -12.68167
     53       2.00000          -0.464254          -12.63300
     54       2.00000          -0.461879          -12.56838
     55       2.00000          -0.448307          -12.19904
     56       2.00000          -0.443040          -12.05574
     57       2.00000          -0.440963          -11.99921
     58       2.00000          -0.437665          -11.90946
     59       2.00000          -0.436075          -11.86621
     60       2.00000          -0.436070          -11.86607
     61       0.00000          -0.151441           -4.12091
     62       0.00000          -0.103379           -2.81309
     63       0.00000          -0.083779           -2.27974
     64       0.00000          -0.028928           -0.78718
     65       0.00000          -0.027981           -0.76140
     66       0.00000          -0.003780           -0.10285
     67       0.00000           0.014659            0.39889
     68       0.00000           0.034293            0.93316
     69       0.00000           0.038173            1.03875
     70       0.00000           0.051510            1.40165
     71       0.00000           0.081231            2.21042
     72       0.00000           0.105506            2.87097
     73       0.00000           0.129210            3.51598
     74       0.00000           0.163678            4.45391
     75       0.00000           0.167402            4.55524
     76       0.00000           0.168788            4.59295
     77       0.00000           0.174357            4.74448
     78       0.00000           0.176938            4.81473
     79       0.00000           0.194827            5.30151
     80       0.00000           0.203096            5.52652
     81       0.00000           0.204926            5.57632
     82       0.00000           0.210799            5.73614
     83       0.00000           0.219833            5.98197
     84       0.00000           0.228672            6.22249
     85       0.00000           0.243708            6.63163
     86       0.00000           0.256719            6.98569
     87       0.00000           0.265091            7.21348
     88       0.00000           0.272155            7.40571
     89       0.00000           0.294189            8.00530
     90       0.00000           0.298974            8.13550
     91       0.00000           0.322840            8.78492
     92       0.00000           0.327749            8.91851
     93       0.00000           0.330296            8.98781
     94       0.00000           0.346622            9.43206
     95       0.00000           0.348431            9.48129
     96       0.00000           0.362954            9.87647

  Highest occupied state (VBM) at    -11.86606832 eV
  | Occupation number:      2.00000000

  Lowest unoccupied state (CBM) at    -4.12091484 eV
  | Occupation number:      0.00000000

  Overall HOMO-LUMO gap:      7.74515348 eV.
  Calculating total energy contributions from superposition of free atom densities.

  Total energy components:
  | Sum of eigenvalues            :        -890.39769898 Ha      -24228.95414476 eV
  | XC energy correction          :        -144.51022264 Ha       -3932.32323233 eV
  | XC potential correction       :         188.17357775 Ha        5120.46357696 eV
  | Free-atom electrostatic energy:        -778.33586956 Ha      -21179.59661676 eV
  | Hartree energy correction     :           0.00000000 Ha           0.00000000 eV
  | Entropy correction            :           0.00000000 Ha           0.00000000 eV
  | ---------------------------
  | Total energy                  :       -1625.07021342 Ha      -44220.41041688 eV
  | Total energy, T -> 0          :       -1625.07021342 Ha      -44220.41041688 eV  <-- do not rely on this value for anything but (periodic) metals
  | Electronic free energy        :       -1625.07021342 Ha      -44220.41041688 eV

  Derived energy quantities:
  | Kinetic energy                :        1628.39262344 Ha       44310.81779342 eV
  | Electrostatic energy          :       -3108.95261423 Ha      -84598.90497798 eV
  | Energy correction for multipole
  | error in Hartree potential    :           0.00000000 Ha           0.00000000 eV
  | Sum of eigenvalues per atom                           :       -2019.07951206 eV
  | Total energy (T->0) per atom                          :       -3685.03420141 eV  <-- do not rely on this value for anything but (periodic) metals
  | Electronic free energy per atom                       :       -3685.03420141 eV
  Initialize hartree_potential_storage
  Max. number of atoms included in rho_multipole:           12

  End scf initialization - timings             :  max(cpu_time)    wall_clock(cpu1)
  | Time for scf. initialization                :        0.113 s           0.114 s
  | Boundary condition initialization           :        0.000 s           0.001 s
  | Integration                                 :        0.045 s           0.045 s
  | Solution of K.-S. eqns.                     :        0.011 s           0.011 s
  | Grid partitioning                           :        0.035 s           0.035 s
  | Preloading free-atom quantities on grid     :        0.015 s           0.014 s
  | Free-atom superposition energy              :        0.005 s           0.005 s
  | Total energy evaluation                     :        0.000 s           0.000 s

  Partial memory accounting:
  | Current value for overall tracked memory usage:
  |   Minimum:        0.273 MB (on task 23)
  |   Maximum:        0.292 MB (on task  0)
  |   Average:        0.287 MB
  | Peak value for overall tracked memory usage:
  |   Minimum:        1.337 MB (on task  0 after allocating wave)
  |   Maximum:        1.422 MB (on task  8 after allocating wave)
  |   Average:        1.382 MB
  | Largest tracked array allocation so far:
  |   Minimum:        0.241 MB (H_times_psi on task  0)
  |   Maximum:        0.471 MB (all_coords on task 10)
  |   Average:        0.275 MB
  Note:  These values currently only include a subset of arrays which are explicitly tracked.
  The "true" memory usage will be greater.
------------------------------------------------------------
  Evaluating new KS density.
  Integration grid: deviation in total charge (<rho> - N_e) =   2.842171E-14

  Time for density update prior                :  max(cpu_time)    wall_clock(cpu1)
  | self-consistency iterative process          :        0.029 s           0.029 s

------------------------------------------------------------
          Begin self-consistency iteration #    1

  Date     :  20220517, Time     :  115855.214
------------------------------------------------------------
  Pulay mixing of updated and previous charge densities.
  Renormalizing the density to the exact electron count on the 3D integration grid.
  | Formal number of electrons (from input files) :     120.0000000000
  | Integrated number of electrons on 3D grid     :     120.0000000000
  | Charge integration error                      :       0.0000000000
  | Normalization factor for density and gradient :       1.0000000000

  Evaluating partitioned Hartree potential by multipole expansion.
  | Original multipole sum: apparent total charge =   0.890438E-14
  | Sum of charges compensated after spline to logarithmic grids =   0.166409E-03
  | Analytical far-field extrapolation by fixed multipoles:
  | Hartree multipole sum: apparent total charge =   0.993749E-14
  Summing up the Hartree potential.
  Time summed over all CPUs for potential: real work        0.384 s, elapsed        0.428 s
  | RMS charge density error from multipole expansion :   0.134998E-01

  Integrating Hamiltonian matrix: batch-based integration.
  Time summed over all CPUs for integration: real work        0.662 s, elapsed        0.715 s

  Updating Kohn-Sham eigenvalues and eigenvectors using ELSI and the ELPA eigensolver.
  Starting ELPA eigensolver
  Finished transformation to standard eigenproblem
  | Time :     0.001 s
  Finished solving standard eigenproblem
  | Time :     0.003 s
  Finished back-transformation of eigenvectors
  | Time :     0.000 s

  Obtaining occupation numbers and chemical potential using ELSI.
  | Chemical potential (Fermi level):    -6.09755161 eV
  Writing Kohn-Sham eigenvalues.

  State    Occupation    Eigenvalue [Ha]    Eigenvalue [eV]
      1       2.00000         -55.630292        -1513.77726
      2       2.00000         -55.591445        -1512.72020
      3       2.00000         -55.565026        -1512.00127
      4       2.00000         -24.217406         -658.98915
      5       2.00000         -24.217400         -658.98899
      6       2.00000         -24.182554         -658.04077
      7       2.00000         -24.150759         -657.17558
      8       2.00000         -24.128743         -656.57651
      9       2.00000         -24.116101         -656.23249
     10       2.00000         -24.033528         -653.98558
     11       2.00000         -24.014154         -653.45838
     12       2.00000         -24.014151         -653.45830
     13       2.00000          -4.081134         -111.05332
     14       2.00000          -4.078748         -110.98839
     15       2.00000          -4.008971         -109.08964
     16       2.00000          -2.692754          -73.27358
     17       2.00000          -2.672197          -72.71417
     18       2.00000          -2.672126          -72.71226
     19       2.00000          -2.669891          -72.65142
     20       2.00000          -2.665859          -72.54170
     21       2.00000          -2.664413          -72.50238
     22       2.00000          -2.602664          -70.82209
     23       2.00000          -2.601552          -70.79184
     24       2.00000          -2.600349          -70.75909
     25       2.00000          -1.215759          -33.08248
     26       2.00000          -1.169267          -31.81736
     27       2.00000          -1.155714          -31.44858
     28       2.00000          -1.135451          -30.89720
     29       2.00000          -1.071888          -29.16754
     30       2.00000          -1.047085          -28.49264
     31       2.00000          -0.975600          -26.54741
     32       2.00000          -0.962384          -26.18779
     33       2.00000          -0.959388          -26.10627
     34       2.00000          -0.546280          -14.86504
     35       2.00000          -0.527427          -14.35203
     36       2.00000          -0.526814          -14.33535
     37       2.00000          -0.517982          -14.09500
     38       2.00000          -0.490640          -13.35101
     39       2.00000          -0.489262          -13.31351
     40       2.00000          -0.470615          -12.80608
     41       2.00000          -0.460272          -12.52465
     42       2.00000          -0.455319          -12.38986
     43       2.00000          -0.451513          -12.28630
     44       2.00000          -0.449821          -12.24025
     45       2.00000          -0.431861          -11.75154
     46       2.00000          -0.423752          -11.53087
     47       2.00000          -0.399839          -10.88017
     48       2.00000          -0.390793          -10.63402
     49       2.00000          -0.378205          -10.29148
     50       2.00000          -0.358527           -9.75602
     51       2.00000          -0.354474           -9.64574
     52       2.00000          -0.343333           -9.34258
     53       2.00000          -0.329681           -8.97107
     54       2.00000          -0.307062           -8.35557
     55       2.00000          -0.291339           -7.92774
     56       2.00000          -0.290207           -7.89692
     57       2.00000          -0.280636           -7.63650
     58       2.00000          -0.273481           -7.44179
     59       2.00000          -0.267339           -7.27466
     60       2.00000          -0.265735           -7.23102
     61       0.00000          -0.168310           -4.57995
     62       0.00000          -0.097782           -2.66078
     63       0.00000          -0.053511           -1.45611
     64       0.00000          -0.047802           -1.30076
     65       0.00000          -0.036282           -0.98730
     66       0.00000          -0.016787           -0.45680
     67       0.00000           0.027268            0.74199
     68       0.00000           0.044316            1.20590
     69       0.00000           0.074311            2.02211
     70       0.00000           0.077922            2.12037
     71       0.00000           0.081198            2.20951
     72       0.00000           0.094391            2.56852
     73       0.00000           0.124427            3.38583
     74       0.00000           0.141433            3.84858
     75       0.00000           0.162059            4.40985
     76       0.00000           0.167381            4.55466
     77       0.00000           0.183217            4.98559
     78       0.00000           0.185414            5.04536
     79       0.00000           0.204311            5.55960
     80       0.00000           0.215447            5.86261
     81       0.00000           0.222293            6.04891
     82       0.00000           0.231387            6.29635
     83       0.00000           0.251446            6.84219
     84       0.00000           0.253457            6.89691
     85       0.00000           0.256537            6.98072
     86       0.00000           0.261234            7.10853
     87       0.00000           0.265462            7.22360
     88       0.00000           0.287262            7.81680
     89       0.00000           0.292195            7.95103
     90       0.00000           0.304635            8.28953
     91       0.00000           0.327421            8.90957
     92       0.00000           0.342030            9.30711
     93       0.00000           0.352683            9.59700
     94       0.00000           0.368306           10.02212
     95       0.00000           0.371313           10.10394
     96       0.00000           0.377566           10.27409

  Highest occupied state (VBM) at     -7.23102004 eV
  | Occupation number:      2.00000000

  Lowest unoccupied state (CBM) at    -4.57995216 eV
  | Occupation number:      0.00000000

  Overall HOMO-LUMO gap:      2.65106788 eV.

  Total energy components:
  | Sum of eigenvalues            :        -880.67392550 Ha      -23964.35680587 eV
  | XC energy correction          :        -146.14477644 Ha       -3976.80170440 eV
  | XC potential correction       :         190.32259183 Ha        5178.94122525 eV
  | Free-atom electrostatic energy:        -778.33586956 Ha      -21179.59661676 eV
  | Hartree energy correction     :          -9.93909132 Ha        -270.45643557 eV
  | Entropy correction            :           0.00000000 Ha           0.00000000 eV
  | ---------------------------
  | Total energy                  :       -1624.77107100 Ha      -44212.27033735 eV
  | Total energy, T -> 0          :       -1624.77107100 Ha      -44212.27033735 eV  <-- do not rely on this value for anything but (periodic) metals
  | Electronic free energy        :       -1624.77107100 Ha      -44212.27033735 eV

  Derived energy quantities:
  | Kinetic energy                :        1637.46472799 Ha       44557.68231851 eV
  | Electrostatic energy          :       -3116.09102254 Ha      -84793.15095145 eV
  | Energy correction for multipole
  | error in Hartree potential    :           0.05573845 Ha           1.51672038 eV
  | Sum of eigenvalues per atom                           :       -1997.02973382 eV
  | Total energy (T->0) per atom                          :       -3684.35586145 eV  <-- do not rely on this value for anything but (periodic) metals
  | Electronic free energy per atom                       :       -3684.35586145 eV
  Evaluating new KS density.
  Integration grid: deviation in total charge (<rho> - N_e) =   4.263256E-14

  Self-consistency convergence accuracy:
  | Change of charge density      :  0.7102E+00
  | Change of sum of eigenvalues  :  0.2646E+03 eV
  | Change of total energy        :  0.8140E+01 eV


------------------------------------------------------------
  End self-consistency iteration #     1       :  max(cpu_time)    wall_clock(cpu1)
  | Time for this iteration                     :        0.083 s           0.083 s
  | Charge density update                       :        0.027 s           0.027 s
  | Density mixing                              :        0.000 s           0.000 s
  | Hartree multipole update                    :        0.001 s           0.002 s
  | Hartree multipole summation                 :        0.018 s           0.018 s
  | Integration                                 :        0.030 s           0.030 s
  | Solution of K.-S. eqns.                     :        0.004 s           0.005 s
  | Total energy evaluation                     :        0.000 s           0.000 s

  Partial memory accounting:
  | Current value for overall tracked memory usage:
  |   Minimum:        0.273 MB (on task 23)
  |   Maximum:        0.292 MB (on task  0)
  |   Average:        0.287 MB
  | Peak value for overall tracked memory usage:
  |   Minimum:        1.337 MB (on task  0 after allocating wave)
  |   Maximum:        1.422 MB (on task  8 after allocating wave)
  |   Average:        1.382 MB
  | Largest tracked array allocation so far:
  |   Minimum:        0.724 MB (gradient_basis_wave on task  0)
  |   Maximum:        0.779 MB (gradient_basis_wave on task  8)
  |   Average:        0.756 MB
  Note:  These values currently only include a subset of arrays which are explicitly tracked.
  The "true" memory usage will be greater.
------------------------------------------------------------

------------------------------------------------------------
          Begin self-consistency iteration #    2

  Date     :  20220517, Time     :  115855.301
------------------------------------------------------------
  Pulay mixing of updated and previous charge densities.
  Renormalizing the density to the exact electron count on the 3D integration grid.
  | Formal number of electrons (from input files) :     120.0000000000
  | Integrated number of electrons on 3D grid     :     120.0000000000
  | Charge integration error                      :      -0.0000000000
  | Normalization factor for density and gradient :       1.0000000000

  Evaluating partitioned Hartree potential by multipole expansion.
  | Original multipole sum: apparent total charge =  -0.544594E-13
  | Sum of charges compensated after spline to logarithmic grids =   0.142407E-03
  | Analytical far-field extrapolation by fixed multipoles:
  | Hartree multipole sum: apparent total charge =  -0.559845E-13
  Summing up the Hartree potential.
  Time summed over all CPUs for potential: real work        0.382 s, elapsed        0.426 s
  | RMS charge density error from multipole expansion :   0.160551E-01

  Integrating Hamiltonian matrix: batch-based integration.
  Time summed over all CPUs for integration: real work        0.658 s, elapsed        0.709 s

  Updating Kohn-Sham eigenvalues and eigenvectors using ELSI and the ELPA eigensolver.
  Starting ELPA eigensolver
  Finished transformation to standard eigenproblem
  | Time :     0.000 s
  Finished solving standard eigenproblem
  | Time :     0.004 s
  Finished back-transformation of eigenvectors
  | Time :     0.000 s

  Obtaining occupation numbers and chemical potential using ELSI.
  | Chemical potential (Fermi level):    -7.74998645 eV
  Highest occupied state (VBM) at     -8.25328391 eV
  | Occupation number:      2.00000000

  Lowest unoccupied state (CBM) at    -4.87405487 eV
  | Occupation number:      0.00000000

  Overall HOMO-LUMO gap:      3.37922904 eV.

  Checking to see if s.c.f. parameters should be adjusted.

  Total energy components:
  | Sum of eigenvalues            :        -884.03491941 Ha      -24055.81410354 eV
  | XC energy correction          :        -145.63340915 Ha       -3962.88669234 eV
  | XC potential correction       :         189.64971637 Ha        5160.63135247 eV
  | Free-atom electrostatic energy:        -778.33586956 Ha      -21179.59661676 eV
  | Hartree energy correction     :          -6.35411378 Ha        -172.90423331 eV
  | Entropy correction            :           0.00000000 Ha           0.00000000 eV
  | ---------------------------
  | Total energy                  :       -1624.70859553 Ha      -44210.57029348 eV
  | Total energy, T -> 0          :       -1624.70859553 Ha      -44210.57029348 eV  <-- do not rely on this value for anything but (periodic) metals
  | Electronic free energy        :       -1624.70859553 Ha      -44210.57029348 eV

  Derived energy quantities:
  | Kinetic energy                :        1633.34476343 Ha       44445.57237875 eV
  | Electrostatic energy          :       -3112.41994981 Ha      -84693.25597988 eV
  | Energy correction for multipole
  | error in Hartree potential    :           0.05887105 Ha           1.60196284 eV
  | Sum of eigenvalues per atom                           :       -2004.65117530 eV
  | Total energy (T->0) per atom                          :       -3684.21419112 eV  <-- do not rely on this value for anything but (periodic) metals
  | Electronic free energy per atom                       :       -3684.21419112 eV
  Evaluating new KS density.
  Integration grid: deviation in total charge (<rho> - N_e) =   2.842171E-14

  Self-consistency convergence accuracy:
  | Change of charge density      :  0.4706E+00
  | Change of sum of eigenvalues  : -0.9146E+02 eV
  | Change of total energy        :  0.1700E+01 eV


------------------------------------------------------------
  End self-consistency iteration #     2       :  max(cpu_time)    wall_clock(cpu1)
  | Time for this iteration                     :        0.084 s           0.083 s
  | Charge density update                       :        0.027 s           0.027 s
  | Density mixing                              :        0.004 s           0.003 s
  | Hartree multipole update                    :        0.001 s           0.001 s
  | Hartree multipole summation                 :        0.018 s           0.018 s
  | Integration                                 :        0.030 s           0.030 s
  | Solution of K.-S. eqns.                     :        0.004 s           0.004 s
  | Total energy evaluation                     :        0.000 s           0.000 s

  Partial memory accounting:
  | Current value for overall tracked memory usage:
  |   Minimum:        0.274 MB (on task 23)
  |   Maximum:        0.293 MB (on task  0)
  |   Average:        0.288 MB
  | Peak value for overall tracked memory usage:
  |   Minimum:        1.337 MB (on task  0 after allocating wave)
  |   Maximum:        1.422 MB (on task  8 after allocating wave)
  |   Average:        1.382 MB
  | Largest tracked array allocation so far:
  |   Minimum:        0.724 MB (gradient_basis_wave on task  0)
  |   Maximum:        0.779 MB (gradient_basis_wave on task  8)
  |   Average:        0.756 MB
  Note:  These values currently only include a subset of arrays which are explicitly tracked.
  The "true" memory usage will be greater.
------------------------------------------------------------

------------------------------------------------------------
          Begin self-consistency iteration #    3

  Date     :  20220517, Time     :  115855.390
------------------------------------------------------------
  Pulay mixing of updated and previous charge densities.
  Renormalizing the density to the exact electron count on the 3D integration grid.
  | Formal number of electrons (from input files) :     120.0000000000
  | Integrated number of electrons on 3D grid     :     120.0000000000
  | Charge integration error                      :       0.0000000000
  | Normalization factor for density and gradient :       1.0000000000

  Evaluating partitioned Hartree potential by multipole expansion.
  | Original multipole sum: apparent total charge =  -0.353715E-13
  | Sum of charges compensated after spline to logarithmic grids =   0.182538E-03
  | Analytical far-field extrapolation by fixed multipoles:
  | Hartree multipole sum: apparent total charge =  -0.337973E-13
  Summing up the Hartree potential.
  Time summed over all CPUs for potential: real work        0.382 s, elapsed        0.427 s
  | RMS charge density error from multipole expansion :   0.206069E-01

  Integrating Hamiltonian matrix: batch-based integration.
  Time summed over all CPUs for integration: real work        0.658 s, elapsed        0.709 s

  Updating Kohn-Sham eigenvalues and eigenvectors using ELSI and the ELPA eigensolver.
  Starting ELPA eigensolver
  Finished transformation to standard eigenproblem
  | Time :     0.001 s
  Finished solving standard eigenproblem
  | Time :     0.003 s
  Finished back-transformation of eigenvectors
  | Time :     0.000 s

  Obtaining occupation numbers and chemical potential using ELSI.
  | Chemical potential (Fermi level):    -6.22193345 eV
  Highest occupied state (VBM) at     -7.66353613 eV
  | Occupation number:      2.00000000

  Lowest unoccupied state (CBM) at    -5.15183998 eV
  | Occupation number:      0.00000000

  Overall HOMO-LUMO gap:      2.51169615 eV.

  Total energy components:
  | Sum of eigenvalues            :        -884.34256222 Ha      -24064.18549023 eV
  | XC energy correction          :        -145.65711508 Ha       -3963.53176357 eV
  | XC potential correction       :         189.67983598 Ha        5161.45094873 eV
  | Free-atom electrostatic energy:        -778.33586956 Ha      -21179.59661676 eV
  | Hartree energy correction     :          -6.05022598 Ha        -164.63502534 eV
  | Entropy correction            :           0.00000000 Ha           0.00000000 eV
  | ---------------------------
  | Total energy                  :       -1624.70593685 Ha      -44210.49794716 eV
  | Total energy, T -> 0          :       -1624.70593685 Ha      -44210.49794716 eV  <-- do not rely on this value for anything but (periodic) metals
  | Electronic free energy        :       -1624.70593685 Ha      -44210.49794716 eV

  Derived energy quantities:
  | Kinetic energy                :        1632.33120736 Ha       44417.99211492 eV
  | Electrostatic energy          :       -3111.38002914 Ha      -84664.95829851 eV
  | Energy correction for multipole
  | error in Hartree potential    :           0.07122939 Ha           1.93825037 eV
  | Sum of eigenvalues per atom                           :       -2005.34879085 eV
  | Total energy (T->0) per atom                          :       -3684.20816226 eV  <-- do not rely on this value for anything but (periodic) metals
  | Electronic free energy per atom                       :       -3684.20816226 eV
  Evaluating new KS density.
  Integration grid: deviation in total charge (<rho> - N_e) =  -2.842171E-14

  Self-consistency convergence accuracy:
  | Change of charge density      :  0.1217E+00
  | Change of sum of eigenvalues  : -0.8371E+01 eV
  | Change of total energy        :  0.7235E-01 eV


------------------------------------------------------------
  End self-consistency iteration #     3       :  max(cpu_time)    wall_clock(cpu1)
  | Time for this iteration                     :        0.084 s           0.083 s
  | Charge density update                       :        0.027 s           0.028 s
  | Density mixing                              :        0.003 s           0.002 s
  | Hartree multipole update                    :        0.001 s           0.001 s
  | Hartree multipole summation                 :        0.018 s           0.018 s
  | Integration                                 :        0.030 s           0.030 s
  | Solution of K.-S. eqns.                     :        0.004 s           0.004 s
  | Total energy evaluation                     :        0.000 s           0.000 s

  Partial memory accounting:
  | Current value for overall tracked memory usage:
  |   Minimum:        0.274 MB (on task 23)
  |   Maximum:        0.293 MB (on task  0)
  |   Average:        0.288 MB
  | Peak value for overall tracked memory usage:
  |   Minimum:        1.337 MB (on task  0 after allocating wave)
  |   Maximum:        1.422 MB (on task  8 after allocating wave)
  |   Average:        1.382 MB
  | Largest tracked array allocation so far:
  |   Minimum:        0.724 MB (gradient_basis_wave on task  0)
  |   Maximum:        0.779 MB (gradient_basis_wave on task  8)
  |   Average:        0.756 MB
  Note:  These values currently only include a subset of arrays which are explicitly tracked.
  The "true" memory usage will be greater.
------------------------------------------------------------

------------------------------------------------------------
          Begin self-consistency iteration #    4

  Date     :  20220517, Time     :  115855.479
------------------------------------------------------------
  Pulay mixing of updated and previous charge densities.
  Renormalizing the density to the exact electron count on the 3D integration grid.
  | Formal number of electrons (from input files) :     120.0000000000
  | Integrated number of electrons on 3D grid     :     120.0000000000
  | Charge integration error                      :       0.0000000000
  | Normalization factor for density and gradient :       1.0000000000

  Evaluating partitioned Hartree potential by multipole expansion.
  | Original multipole sum: apparent total charge =   0.246961E-13
  | Sum of charges compensated after spline to logarithmic grids =   0.202183E-03
  | Analytical far-field extrapolation by fixed multipoles:
  | Hartree multipole sum: apparent total charge =   0.253357E-13
  Summing up the Hartree potential.
  Time summed over all CPUs for potential: real work        0.382 s, elapsed        0.427 s
  | RMS charge density error from multipole expansion :   0.234206E-01

  Integrating Hamiltonian matrix: batch-based integration.
  Time summed over all CPUs for integration: real work        0.659 s, elapsed        0.709 s

  Updating Kohn-Sham eigenvalues and eigenvectors using ELSI and the ELPA eigensolver.
  Starting ELPA eigensolver
  Finished transformation to standard eigenproblem
  | Time :     0.000 s
  Finished solving standard eigenproblem
  | Time :     0.003 s
  Finished back-transformation of eigenvectors
  | Time :     0.001 s

  Obtaining occupation numbers and chemical potential using ELSI.
  | Chemical potential (Fermi level):    -6.17139377 eV
  Highest occupied state (VBM) at     -7.56718291 eV
  | Occupation number:      2.00000000

  Lowest unoccupied state (CBM) at    -5.18581559 eV
  | Occupation number:      0.00000000

  Overall HOMO-LUMO gap:      2.38136732 eV.

  Total energy components:
  | Sum of eigenvalues            :        -884.44970026 Ha      -24067.10086457 eV
  | XC energy correction          :        -145.64277055 Ha       -3963.14142912 eV
  | XC potential correction       :         189.66014288 Ha        5160.91507227 eV
  | Free-atom electrostatic energy:        -778.33586956 Ha      -21179.59661676 eV
  | Hartree energy correction     :          -5.93520226 Ha        -161.50507067 eV
  | Entropy correction            :           0.00000000 Ha           0.00000000 eV
  | ---------------------------
  | Total energy                  :       -1624.70339974 Ha      -44210.42890886 eV
  | Total energy, T -> 0          :       -1624.70339974 Ha      -44210.42890886 eV  <-- do not rely on this value for anything but (periodic) metals
  | Electronic free energy        :       -1624.70339974 Ha      -44210.42890886 eV

  Derived energy quantities:
  | Kinetic energy                :        1631.55207172 Ha       44396.79075523 eV
  | Electrostatic energy          :       -3110.61270091 Ha      -84644.07823496 eV
  | Energy correction for multipole
  | error in Hartree potential    :           0.07868160 Ha           2.14103536 eV
  | Sum of eigenvalues per atom                           :       -2005.59173871 eV
  | Total energy (T->0) per atom                          :       -3684.20240907 eV  <-- do not rely on this value for anything but (periodic) metals
  | Electronic free energy per atom                       :       -3684.20240907 eV
  Evaluating new KS density.
  Integration grid: deviation in total charge (<rho> - N_e) =   4.263256E-14

  Self-consistency convergence accuracy:
  | Change of charge density      :  0.9601E-01
  | Change of sum of eigenvalues  : -0.2915E+01 eV
  | Change of total energy        :  0.6904E-01 eV


------------------------------------------------------------
  End self-consistency iteration #     4       :  max(cpu_time)    wall_clock(cpu1)
  | Time for this iteration                     :        0.085 s           0.082 s
  | Charge density update                       :        0.027 s           0.027 s
  | Density mixing                              :        0.004 s           0.001 s
  | Hartree multipole update                    :        0.001 s           0.001 s
  | Hartree multipole summation                 :        0.018 s           0.018 s
  | Integration                                 :        0.030 s           0.030 s
  | Solution of K.-S. eqns.                     :        0.004 s           0.004 s
  | Total energy evaluation                     :        0.000 s           0.000 s

  Partial memory accounting:
  | Current value for overall tracked memory usage:
  |   Minimum:        0.274 MB (on task 23)
  |   Maximum:        0.293 MB (on task  0)
  |   Average:        0.288 MB
  | Peak value for overall tracked memory usage:
  |   Minimum:        1.337 MB (on task  0 after allocating wave)
  |   Maximum:        1.422 MB (on task  8 after allocating wave)
  |   Average:        1.382 MB
  | Largest tracked array allocation so far:
  |   Minimum:        0.724 MB (gradient_basis_wave on task  0)
  |   Maximum:        0.779 MB (gradient_basis_wave on task  8)
  |   Average:        0.756 MB
  Note:  These values currently only include a subset of arrays which are explicitly tracked.
  The "true" memory usage will be greater.
------------------------------------------------------------

------------------------------------------------------------
          Begin self-consistency iteration #    5

  Date     :  20220517, Time     :  115855.568
------------------------------------------------------------
  Pulay mixing of updated and previous charge densities.
  Renormalizing the density to the exact electron count on the 3D integration grid.
  | Formal number of electrons (from input files) :     120.0000000000
  | Integrated number of electrons on 3D grid     :     120.0000000000
  | Charge integration error                      :      -0.0000000000
  | Normalization factor for density and gradient :       1.0000000000

  Evaluating partitioned Hartree potential by multipole expansion.
  | Original multipole sum: apparent total charge =  -0.244502E-13
  | Sum of charges compensated after spline to logarithmic grids =   0.203936E-03
  | Analytical far-field extrapolation by fixed multipoles:
  | Hartree multipole sum: apparent total charge =  -0.280414E-13
  Summing up the Hartree potential.
  Time summed over all CPUs for potential: real work        0.382 s, elapsed        0.426 s
  | RMS charge density error from multipole expansion :   0.236452E-01

  Integrating Hamiltonian matrix: batch-based integration.
  Time summed over all CPUs for integration: real work        0.658 s, elapsed        0.709 s

  Updating Kohn-Sham eigenvalues and eigenvectors using ELSI and the ELPA eigensolver.
  Starting ELPA eigensolver
  Finished transformation to standard eigenproblem
  | Time :     0.000 s
  Finished solving standard eigenproblem
  | Time :     0.003 s
  Finished back-transformation of eigenvectors
  | Time :     0.000 s

  Obtaining occupation numbers and chemical potential using ELSI.
  | Chemical potential (Fermi level):    -6.16954954 eV
  Highest occupied state (VBM) at     -7.64617781 eV
  | Occupation number:      2.00000000

  Lowest unoccupied state (CBM) at    -5.16086709 eV
  | Occupation number:      0.00000000

  Overall HOMO-LUMO gap:      2.48531073 eV.

  Total energy components:
  | Sum of eigenvalues            :        -884.47661709 Ha      -24067.83330880 eV
  | XC energy correction          :        -145.63087856 Ha       -3962.81783162 eV
  | XC potential correction       :         189.64446930 Ha        5160.48857252 eV
  | Free-atom electrostatic energy:        -778.33586956 Ha      -21179.59661676 eV
  | Hartree energy correction     :          -5.90435327 Ha        -160.66562712 eV
  | Entropy correction            :           0.00000000 Ha           0.00000000 eV
[...]
   Total forces(   7)            :  0.163359E+00  0.279539E-01 -0.362774E+00
  atom #    8
   Hellmann-Feynman              :  0.133220E+01  0.237382E+00 -0.259948E+01
   Ionic forces                  :  0.000000E+00  0.000000E+00  0.000000E+00
   Multipole                     :  0.126172E+00  0.232101E-01 -0.214672E+00
   Hartree pot. SCF incomplete   :  0.286880E-05  0.725340E-06  0.514905E-05
   Pulay + GGA                   : -0.327605E+01 -0.689152E+00  0.967525E+00
   ----------------------------------------------------------------
   Total forces(   8)            : -0.181768E+01 -0.428559E+00 -0.184662E+01
  atom #    9
   Hellmann-Feynman              :  0.238316E+00  0.262954E+01  0.908523E+00
   Ionic forces                  :  0.000000E+00  0.000000E+00  0.000000E+00
   Multipole                     :  0.126439E+00  0.529395E+00  0.131724E+00
   Hartree pot. SCF incomplete   :  0.189992E-05  0.196626E-05  0.143423E-05
   Pulay + GGA                   : -0.112791E+01 -0.601164E+01 -0.202855E+01
   ----------------------------------------------------------------
   Total forces(   9)            : -0.763154E+00 -0.285271E+01 -0.988304E+00
  atom #   10
   Hellmann-Feynman              :  0.129571E+01 -0.226265E+01  0.100050E+01
   Ionic forces                  :  0.000000E+00  0.000000E+00  0.000000E+00
   Multipole                     :  0.332841E+00 -0.425018E+00  0.150030E+00
   Hartree pot. SCF incomplete   :  0.252942E-05 -0.954983E-06  0.148858E-05
   Pulay + GGA                   : -0.349257E+01  0.493184E+01 -0.223611E+01
   ----------------------------------------------------------------
   Total forces(  10)            : -0.186402E+01  0.224417E+01 -0.108558E+01
  atom #   11
   Hellmann-Feynman              : -0.660071E+01 -0.120420E+01  0.117351E+02
   Ionic forces                  :  0.000000E+00  0.000000E+00  0.000000E+00
   Multipole                     : -0.181826E+00 -0.125020E-01  0.141096E+01
   Hartree pot. SCF incomplete   : -0.397020E-05 -0.910499E-06 -0.287225E-05
   Pulay + GGA                   :  0.184906E+01  0.295594E+00 -0.551961E+01
   ----------------------------------------------------------------
   Total forces(  11)            : -0.493348E+01 -0.921113E+00  0.762641E+01
  atom #   12
   Hellmann-Feynman              :  0.160182E+01  0.311732E+00 -0.178079E+01
   Ionic forces                  :  0.000000E+00  0.000000E+00  0.000000E+00
   Multipole                     :  0.531491E+00  0.107876E+00 -0.362739E+00
   Hartree pot. SCF incomplete   :  0.361944E-05  0.780995E-06  0.392691E-06
   Pulay + GGA                   : -0.546062E+01 -0.108858E+01  0.478826E+01
   ----------------------------------------------------------------
   Total forces(  12)            : -0.332731E+01 -0.668970E+00  0.264473E+01


  Self-consistency convergence accuracy:
  | Change of charge density      :  0.3901E-06
  | Change of sum of eigenvalues  : -0.6278E-04 eV
  | Change of total energy        : -0.1370E-07 eV
  | Change of forces              :  0.2413E-05 eV/A

  Writing Kohn-Sham eigenvalues.

  State    Occupation    Eigenvalue [Ha]    Eigenvalue [eV]
      1       2.00000         -55.609739        -1513.21798
      2       2.00000         -55.566469        -1512.04056
      3       2.00000         -55.524422        -1510.89638
      4       2.00000         -24.306760         -661.42061
      5       2.00000         -24.306760         -661.42058
      6       2.00000         -24.303989         -661.34518
      7       2.00000         -24.282747         -660.76717
      8       2.00000         -24.218255         -659.01226
      9       2.00000         -24.206765         -658.69959
     10       2.00000         -24.190251         -658.25022
     11       2.00000         -24.134878         -656.74345
     12       2.00000         -24.134876         -656.74340
     13       2.00000          -4.094207         -111.40905
     14       2.00000          -4.074952         -110.88509
     15       2.00000          -3.981343         -108.33785
     16       2.00000          -2.700602          -73.48713
     17       2.00000          -2.677326          -72.85374
     18       2.00000          -2.677056          -72.84641
     19       2.00000          -2.668103          -72.60277
     20       2.00000          -2.666888          -72.56973
     21       2.00000          -2.663984          -72.49068
     22       2.00000          -2.574821          -70.06445
     23       2.00000          -2.572838          -70.01047
     24       2.00000          -2.570839          -69.95609
     25       2.00000          -1.265426          -34.43399
     26       2.00000          -1.198980          -32.62591
     27       2.00000          -1.186341          -32.28197
     28       2.00000          -1.186153          -32.27687
     29       2.00000          -1.084629          -29.51424
     30       2.00000          -1.062499          -28.91206
     31       2.00000          -1.022971          -27.83647
     32       2.00000          -0.978737          -26.63280
     33       2.00000          -0.976120          -26.56157
     34       2.00000          -0.589967          -16.05381
     35       2.00000          -0.578388          -15.73875
     36       2.00000          -0.569859          -15.50665
     37       2.00000          -0.556484          -15.14270
     38       2.00000          -0.526476          -14.32613
     39       2.00000          -0.523207          -14.23718
     40       2.00000          -0.509857          -13.87391
     41       2.00000          -0.500444          -13.61777
     42       2.00000          -0.489288          -13.31421
     43       2.00000          -0.487401          -13.26286
     44       2.00000          -0.482919          -13.14090
     45       2.00000          -0.475516          -12.93945
     46       2.00000          -0.447113          -12.16657
     47       2.00000          -0.416316          -11.32853
     48       2.00000          -0.406635          -11.06509
     49       2.00000          -0.388929          -10.58330
     50       2.00000          -0.384230          -10.45543
     51       2.00000          -0.372972          -10.14909
     52       2.00000          -0.366416           -9.97068
     53       2.00000          -0.343849           -9.35660
     54       2.00000          -0.332651           -9.05190
     55       2.00000          -0.332485           -9.04738
     56       2.00000          -0.322978           -8.78869
     57       2.00000          -0.293003           -7.97301
     58       2.00000          -0.287047           -7.81096
     59       2.00000          -0.281960           -7.67253
     60       2.00000          -0.280824           -7.64160
     61       0.00000          -0.188925           -5.14092
     62       0.00000          -0.110413           -3.00449
     63       0.00000          -0.068566           -1.86579
     64       0.00000          -0.058682           -1.59682
     65       0.00000          -0.045379           -1.23482
     66       0.00000          -0.023898           -0.65030
     67       0.00000           0.024043            0.65424
     68       0.00000           0.039630            1.07840
     69       0.00000           0.066923            1.82108
     70       0.00000           0.069466            1.89028
     71       0.00000           0.086207            2.34581
     72       0.00000           0.099662            2.71193
     73       0.00000           0.123826            3.36946
     74       0.00000           0.125024            3.40207
     75       0.00000           0.146371            3.98295
     76       0.00000           0.153835            4.18607
     77       0.00000           0.169364            4.60862
     78       0.00000           0.177155            4.82064
     79       0.00000           0.200051            5.44365
     80       0.00000           0.203762            5.54464
     81       0.00000           0.207574            5.64837
     82       0.00000           0.229932            6.25678
     83       0.00000           0.246493            6.70741
     84       0.00000           0.249906            6.80029
     85       0.00000           0.255993            6.96594
     86       0.00000           0.263294            7.16460
     87       0.00000           0.267203            7.27098
     88       0.00000           0.286716            7.80194
     89       0.00000           0.293563            7.98827
     90       0.00000           0.298797            8.13067
     91       0.00000           0.323662            8.80729
     92       0.00000           0.339700            9.24370
     93       0.00000           0.344698            9.37971
     94       0.00000           0.368882           10.03778
     95       0.00000           0.371902           10.11997
     96       0.00000           0.374757           10.19766

  Highest occupied state (VBM) at     -7.64160344 eV
  | Occupation number:      2.00000000

  Lowest unoccupied state (CBM) at    -5.14091757 eV
  | Occupation number:      0.00000000

  Overall HOMO-LUMO gap:      2.50068587 eV.
  | Chemical Potential                          :    -6.16715916 eV

  Self-consistency cycle converged.


------------------------------------------------------------
  End self-consistency iteration #    14       :  max(cpu_time)    wall_clock(cpu1)
  | Time for this iteration                     :        0.269 s           0.267 s
  | Charge density & force component update     :        0.146 s           0.145 s
  | Density mixing                              :        0.005 s           0.002 s
  | Hartree multipole update                    :        0.001 s           0.001 s
  | Hartree multipole summation                 :        0.050 s           0.051 s
  | Hartree pot. SCF incomplete forces          :        0.032 s           0.033 s
  | Integration                                 :        0.030 s           0.029 s
  | Solution of K.-S. eqns.                     :        0.004 s           0.004 s
  | Total energy evaluation                     :        0.000 s           0.000 s

  Partial memory accounting:
  | Current value for overall tracked memory usage:
  |   Minimum:        0.274 MB (on task 23)
  |   Maximum:        0.293 MB (on task  0)
  |   Average:        0.289 MB
  | Peak value for overall tracked memory usage:
  |   Minimum:        2.980 MB (on task  0 after allocating hessian_basis_wave)
  |   Maximum:        3.162 MB (on task  8 after allocating hessian_basis_wave)
  |   Average:        3.082 MB
  | Largest tracked array allocation so far:
  |   Minimum:        1.448 MB (hessian_basis_wave on task  0)
  |   Maximum:        1.558 MB (hessian_basis_wave on task  8)
  |   Average:        1.512 MB
  Note:  These values currently only include a subset of arrays which are explicitly tracked.
  The "true" memory usage will be greater.
------------------------------------------------------------
  Removing unitary transformations (pure translations, rotations) from forces on atoms.
  Atomic forces before filtering:
  | Net force on center of mass :   0.319043E-02 -0.919498E-02 -0.537820E-02 eV/A
  | Net torque on center of mass:   0.460561E-02 -0.228912E-01  0.103838E-01 eV
  Atomic forces after filtering:
  | Net force on center of mass :  -0.214087E-14  0.267609E-15  0.178406E-14 eV/A
  | Net torque on center of mass:  -0.207699E-14  0.135948E-13 -0.944085E-15 eV

  Energy and forces in a compact form:
  | Total energy uncorrected      :         -0.442104240141936E+05 eV
  | Total energy corrected        :         -0.442104240141936E+05 eV  <-- do not rely on this value for anything but (periodic) metals
  | Electronic free energy        :         -0.442104240141936E+05 eV
  Total atomic forces (unitary forces cleaned) [eV/Ang]:
  |    1          0.965123407110481E+01          0.206023253476854E+01         -0.137398220292515E+01
  |    2          0.326754974646196E+01          0.755708780335292E+00          0.264414943388633E+01
  |    3          0.663658058697685E+01          0.217785502769839E+01          0.391799765302563E+02
  |    4         -0.987402512717014E+00         -0.109627015352800E+01         -0.463607739446844E+02
  |    5         -0.259309694331366E+01         -0.259265396985607E+01         -0.204169551663167E-02
  |    6         -0.343274463087968E+01          0.128997852263460E+01         -0.768019869937853E-01
  |    7          0.163440633916777E+00          0.290653033634474E-01         -0.362101013666037E+00
  |    8         -0.181760688425407E+01         -0.428239632027850E+00         -0.184683565470830E+01
  |    9         -0.762063471346948E+00         -0.285185599002138E+01         -0.988400292664351E+00
  |   10         -0.186375496689662E+01          0.224484973969476E+01         -0.108548189166403E+01
  |   11         -0.493390597760439E+01         -0.919586463553258E+00          0.762779332827387E+01
  |   12         -0.332822965144800E+01         -0.669083699508473E+00          0.264449939040616E+01

  ------------------------------------ 
  Start decomposition of the XC Energy 
  ------------------------------------ 
  X and C from original XC functional choice 
  Hartree-Fock Energy :          0.000000000 Ha              0.000000000 eV
  X Energy            :       -140.664006880 Ha          -3827.662376523 eV
  C Energy            :         -4.967394310 Ha           -135.169676543 eV
  Total XC Energy     :       -145.631401190 Ha          -3962.832053066 eV
  ------------------------------------ 
  LDA X and C from self-consistent density 
  X Energy LDA        :       -133.256160917 Ha          -3626.084631714 eV
  C Energy LDA        :         -8.844972150 Ha           -240.683938065 eV
  ------------------------------------ 
  End decomposition of the XC Energy 
  ------------------------------------ 

------------------------------------------------------------

------------------------------------------------------------------------------
  Final output of selected total energy values:

  The following output summarizes some interesting total energy values
  at the end of a run (AFTER all relaxation, molecular dynamics, etc.).

  | Total energy of the DFT / Hartree-Fock s.c.f. calculation      :         -44210.424014194 eV
  | Final zero-broadening corrected energy (caution - metals only) :         -44210.424014194 eV
  | For reference only, the value of 1 Hartree used in FHI-aims is :             27.211384500 eV

  Before relying on these values, please be sure to understand exactly which
  total energy value is referred to by a given number. Different objects may
  all carry the same name 'total energy'. Definitions:

  Total energy of the DFT / Hartree-Fock s.c.f. calculation:
  | Note that this energy does not include ANY quantities calculated after the
  | s.c.f. cycle, in particular not ANY RPA, MP2, etc. many-body perturbation terms.

  Final zero-broadening corrected energy:
  | For metallic systems only, a broadening of the occupation numbers at the Fermi
  | level can be extrapolated back to zero broadening by an electron-gas inspired
  | formula. For all systems that are not real metals, this value can be
  | meaningless and should be avoided.

------------------------------------------------------------------------------
  Methods described in the following list of references were used in this FHI-aims run.
  If you publish the results, please make sure to cite these reference if they apply.
  FHI-aims is an academic code, and for our developers (often, Ph.D. students
  and postdocs), scientific credit in the community is essential.
  Thank you for helping us!

  For any use of FHI-aims, please cite:

    Volker Blum, Ralf Gehrke, Felix Hanke, Paula Havu, Ville Havu,
    Xinguo Ren, Karsten Reuter, and Matthias Scheffler
    'Ab initio molecular simulations with numeric atom-centered orbitals'
    Computer Physics Communications 180, 2175-2196 (2009)
    http://dx.doi.org/10.1016/j.cpc.2009.06.022


  The ELSI infrastructure was used in your run to solve the Kohn-Sham electronic structure.
  Please check out http://elsi-interchange.org to learn more.
  If scalability is important for your project, please acknowledge ELSI by citing:

    V. W-z. Yu, F. Corsetti, A. Garcia, W. P. Huhn, M. Jacquelin, W. Jia,
    B. Lange, L. Lin, J. Lu, W. Mi, A. Seifitokaldani, A. Vazquez-Mayagoitia,
    C. Yang, H. Yang, and V. Blum
    'ELSI: A unified software interface for Kohn-Sham electronic structure solvers'
    Computer Physics Communications 222, 267-285 (2018).
    http://dx.doi.org/10.1016/j.cpc.2017.09.007


  For the real-space grid partitioning and parallelization used in this calculation, please cite:

    Ville Havu, Volker Blum, Paula Havu, and Matthias Scheffler,
    'Efficient O(N) integration for all-electron electronic structure calculation'
    'using numerically tabulated basis functions'
    Journal of Computational Physics 228, 8367-8379 (2009).
    http://dx.doi.org/10.1016/j.jcp.2009.08.008

  Of course, there are many other important community references, e.g., those cited in the
  above references. Our list is limited to references that describe implementations in the
  FHI-aims code. The reason is purely practical (length of this list) - please credit others as well.

------------------------------------------------------------
          Leaving FHI-aims.
          Date     :  20220517, Time     :  115856.843

          Computational steps:
          | Number of self-consistency cycles          :           14
          | Number of SCF (re)initializations          :            1

          Detailed time accounting                     :  max(cpu_time)    wall_clock(cpu1)
          | Total time                                  :        1.935 s           2.001 s
          | Preparation time                            :        0.184 s           0.184 s
          | Boundary condition initalization            :        0.000 s           0.001 s
          | Grid partitioning                           :        0.035 s           0.035 s
          | Preloading free-atom quantities on grid     :        0.015 s           0.014 s
          | Free-atom superposition energy              :        0.005 s           0.005 s
          | Total time for integrations                 :        0.464 s           0.462 s
          | Total time for solution of K.-S. equations  :        0.068 s           0.068 s
          | Total time for density & force components   :        0.647 s           0.646 s
          | Total time for mixing                       :        0.061 s           0.030 s
          | Total time for Hartree multipole update     :        0.018 s           0.019 s
          | Total time for Hartree multipole sum        :        0.317 s           0.318 s
          | Total time for total energy evaluation      :        0.002 s           0.000 s
          | Total time NSC force correction             :        0.065 s           0.066 s
          | Total time for scaled ZORA corrections      :        0.000 s           0.000 s

          Partial memory accounting:
          | Residual value for overall tracked memory usage across tasks:     0.000000 MB (should be 0.000000 MB)
          | Peak values for overall tracked memory usage:
          |   Minimum:        2.980 MB (on task  0 after allocating hessian_basis_wave)
          |   Maximum:        3.162 MB (on task  8 after allocating hessian_basis_wave)
          |   Average:        3.082 MB
          | Largest tracked array allocation:
          |   Minimum:        1.448 MB (hessian_basis_wave on task  0)
          |   Maximum:        1.558 MB (hessian_basis_wave on task  8)
          |   Average:        1.512 MB
          Note:  These values currently only include a subset of arrays which are explicitly tracked.
          The "true" memory usage will be greater.

          Have a nice day.
------------------------------------------------------------
