********************************************************************************
*                       GENERAL UTILITY LATTICE PROGRAM                        *
*                                 Julian Gale                                  *
*                       Curtin Institute for Computation                       *
*                           Department of Chemistry                            *
*                    Curtin University, Western Australia                      *
********************************************************************************
* Version = 5.1.1 * Last modified =  24th November 2018                        *
********************************************************************************
*  optimise     - perform optimisation run                                     *
*  conp         - constant pressure calculation                                *
*  shell        - only shells and radii to be optimised                        *
*  phonon       - calculate phonons for final geometry                         *
*  eigenvectors - output phonon eigenvectors                                   *
********************************************************************************

  Job Started  at 14:38.55 25th May        2022                               

  Number of CPUs =     1

  Host name      = login03                                 


  Total number of configurations input =      1

********************************************************************************
*  Input for Configuration =   1                                               *
********************************************************************************

  Formula = Al3F9                                                       

  Number of irreducible atoms/shells =      21


  Total number atoms/shells =      21

  Dimensionality = 0               :  Cluster


  Charge on cluster =  -0.000000


  Initial cluster dipoles : x =      0.714219 e.Angs
                            y =      0.002775 e.Angs
                            z =      0.195382 e.Angs

  Temperature of configuration =  0.000     K 

  Symmetry number =      1

  Cartesian coordinates of cluster :

--------------------------------------------------------------------------------
   No.  Atomic       x           y          z         Charge      Occupancy
        Label      (Angs)      (Angs)     (Angs)        (e)         (Frac)  
--------------------------------------------------------------------------------
      1 Al    c      0.1640     -0.6017      1.7134     3.00000    1.000000    
      2 Al    c      2.4943     -1.7080     -0.2550     3.00000    1.000000    
      3 Al    c     -0.6776     -1.9065     -1.2041     3.00000    1.000000    
      4 F     c      3.4403     -0.5016     -1.3657     0.59000    1.000000    
      5 F     c     -1.9413     -0.5611     -1.6543     0.59000    1.000000    
      6 F     c      2.6142     -3.5508     -0.6573     0.59000    1.000000    
      7 F     c     -1.3907     -3.6284     -0.9456     0.59000    1.000000    
      8 F     c      1.8177     -1.5056      1.4321     0.59000    1.000000    
      9 F     c      1.0525     -1.5057     -1.4571     0.59000    1.000000    
     10 F     c      0.2382     -1.1707      3.4621     0.59000    1.000000    
     11 F     c      0.3730      1.1347      1.1937     0.59000    1.000000    
     12 F     c     -0.9760     -1.3622      0.5596     0.59000    1.000000    
     13 F     s      3.4403 *   -0.5016 *   -1.3657 *  -1.59000    1.000000    
     14 F     s     -1.9413 *   -0.5611 *   -1.6543 *  -1.59000    1.000000    
     15 F     s      2.6142 *   -3.5508 *   -0.6573 *  -1.59000    1.000000    
     16 F     s     -1.3907 *   -3.6284 *   -0.9456 *  -1.59000    1.000000    
     17 F     s      1.8177 *   -1.5056 *    1.4321 *  -1.59000    1.000000    
     18 F     s      1.0525 *   -1.5057 *   -1.4571 *  -1.59000    1.000000    
     19 F     s      0.2382 *   -1.1707 *    3.4621 *  -1.59000    1.000000    
     20 F     s      0.3730 *    1.1347 *    1.1937 *  -1.59000    1.000000    
     21 F     s     -0.9760 *   -1.3622 *    0.5596 *  -1.59000    1.000000    
--------------------------------------------------------------------------------


  Brillouin zone sampling points :

--------------------------------------------------------------------------------
  Point number          x          y          z            Weight
--------------------------------------------------------------------------------
        1           0.000000   0.000000   0.000000     1.00000000
--------------------------------------------------------------------------------


********************************************************************************
*  General input information                                                   *
********************************************************************************

  Species output for all configurations : 

--------------------------------------------------------------------------------
  Species    Type    Atomic    Atomic    Charge       Radii (Angs)     Library
                     Number     Mass       (e)     Cova   Ionic  VDW   Symbol
--------------------------------------------------------------------------------
    Al       Core       13      26.98   3.000000   1.350  0.000  2.050          
    F        Core        9      19.00   0.590000   0.710  0.000  1.300          
    F        Shell       9       0.00  -1.590000   0.710  0.000  1.300          
--------------------------------------------------------------------------------


  Accuracy factor for short range sums = 12.000

  Time limit = Infinity

  Maximum range for interatomic potentials =    100000.000000 Angstroms

  General interatomic potentials :

--------------------------------------------------------------------------------
Atom  Types   Potential      Parameter       Value         Units   Cutoffs(Ang)
  1     2                                                            Min /  Max 
--------------------------------------------------------------------------------
Al   c F    s Buckingham    Buckingham A     3760.0008    eV        0.000 10.000
                            Buckingham rho  0.22200000    Ang       
                            Buckingham C     0.0000000    eV*Ang^6  
--------------------------------------------------------------------------------
F    s F    s Buck 4 range  Buck4 A          1127.7000    eV        0.000 12.000
                            Buck4 rho       0.27530000    Ang       
                            Buck4 C          15.830000    eV*Ang^6  
                            Buck4 minimum    2.7900000    Ang       
--------------------------------------------------------------------------------
F    c F    s Spring (c-s)  Spring k 2       20.770000    eV*Ang^-2 0.000  0.800
                            Spring k 4       0.0000000    eV*Ang^-4 
--------------------------------------------------------------------------------

********************************************************************************
*  Output for configuration   1                                                *
********************************************************************************


  Components of energy : 

--------------------------------------------------------------------------------
  Interatomic potentials     =          10.30262183 eV    
  Monopole - monopole (real) =        -177.95017636 eV    
--------------------------------------------------------------------------------
  Total lattice energy       =        -167.64755453 eV    
--------------------------------------------------------------------------------
  Total lattice energy       =          -16175.4263 kJ/mol
--------------------------------------------------------------------------------


  Number of variables =       27

  Maximum number of calculations  =          2000
  Maximum Hessian update interval =            10
  Maximum step size               =   1.000000000
  Maximum parameter tolerance     =   0.000001000
  Maximum function  tolerance     =   0.000010000
  Maximum gradient  tolerance     =   0.000000010
  Maximum gradient  component     =   0.010000000

  Symmetry not applied to optimisation

  Newton-Raphson optimiser to be used

  BFGS hessian update to be used

  Lower half triangular hessian to be used

  Minimiser to switch to RFO
  When gradient norm is less than     0.010000

  Shell only optimisation

  Start of cluster optimisation :

  Cycle:      0 Energy:      -167.647555  Gnorm:      1.344273  CPU:    0.004
  ** Hessian calculated **
  Cycle:      1 Energy:      -184.470332  Gnorm:      0.427269  CPU:    0.005
  ** Hessian calculated **
  Cycle:      2 Energy:      -185.743342  Gnorm:      0.014394  CPU:    0.008
  Cycle:      3 Energy:      -185.745325  Gnorm:      0.001710  CPU:    0.009
  ** Hessian has required structure
  Cycle:      4 Energy:      -185.745338  Gnorm:      0.001081  CPU:    0.011
  ** Hessian has required structure
  Cycle:      5 Energy:      -185.745339  Gnorm:      0.001019  CPU:    0.012
  ** Hessian has required structure
  Cycle:      6 Energy:      -185.745340  Gnorm:      0.000981  CPU:    0.014
  ** Hessian has required structure
  Cycle:      7 Energy:      -185.745340  Gnorm:      0.000974  CPU:    0.015
  ** Hessian has required structure
  Cycle:      8 Energy:      -185.745340  Gnorm:      0.000974  CPU:    0.017
  ** Hessian has required structure
  Cycle:      9 Energy:      -185.745340  Gnorm:      0.000971  CPU:    0.018
  ** Hessian has required structure
  Cycle:     10 Energy:      -185.745340  Gnorm:      0.000963  CPU:    0.020
  ** Hessian has required structure
  Cycle:     11 Energy:      -185.745341  Gnorm:      0.000975  CPU:    0.021
  ** Hessian has required structure
  Cycle:     12 Energy:      -185.745349  Gnorm:      0.000000  CPU:    0.023
  ** Hessian has required structure
  Cycle:     13 Energy:      -185.745349  Gnorm:      0.000000  CPU:    0.025
  ** Hessian has required structure
  Cycle:     14 Energy:      -185.745349  Gnorm:      0.000000  CPU:    0.026
  ** Hessian has required structure
  Cycle:     15 Energy:      -185.745349  Gnorm:      0.000000  CPU:    0.028
  ** Hessian calculated **

  XYZ File written as 002/3/sp_mod_80/sp_mod_80_eig.xyz



  **** Optimisation achieved ****


  Final energy =    -185.74534910 eV
  Final Gnorm  =       0.00000015

  Components of energy : 

--------------------------------------------------------------------------------
  Interatomic potentials     =          37.61621967 eV    
  Monopole - monopole (real) =        -223.36156877 eV    
--------------------------------------------------------------------------------
  Total lattice energy       =        -185.74534910 eV    
--------------------------------------------------------------------------------
  Total lattice energy       =          -17921.5868 kJ/mol
--------------------------------------------------------------------------------

  Final cartesian coordinates of atoms :

--------------------------------------------------------------------------------
   No.  Atomic        x           y          z          Radius
        Label       (Angs)      (Angs)     (Angs)       (Angs) 
--------------------------------------------------------------------------------
     1  Al    c     0.164022   -0.601699    1.713375    0.000000
     2  Al    c     2.494316   -1.707993   -0.254955    0.000000
     3  Al    c    -0.677613   -1.906537   -1.204143    0.000000
     4  F     c     3.440288   -0.501554   -1.365747    0.000000
     5  F     c    -1.941307   -0.561143   -1.654263    0.000000
     6  F     c     2.614189   -3.550833   -0.657279    0.000000
     7  F     c    -1.390716   -3.628434   -0.945627    0.000000
     8  F     c     1.817710   -1.505627    1.432072    0.000000
     9  F     c     1.052545   -1.505658   -1.457117    0.000000
    10  F     c     0.238229   -1.170701    3.462107    0.000000
    11  F     c     0.372973    1.134728    1.193738    0.000000
    12  F     c    -0.975953   -1.362240    0.559564    0.000000
    13  F     s     3.299937   -0.694990   -1.128956    0.000000
    14  F     s    -1.702885   -0.788104   -1.629764    0.000000
    15  F     s     2.614974   -3.246390   -0.549504    0.000000
    16  F     s    -1.236317   -3.351249   -1.015279    0.000000
    17  F     s     1.739808   -1.406283    1.186784    0.000000
    18  F     s     0.928856   -1.580887   -1.275246    0.000000
    19  F     s     0.198422   -1.079940    3.182415    0.000000
    20  F     s     0.349402    0.865710    1.271758    0.000000
    21  F     s    -0.748151   -1.341064    0.561698    0.000000
--------------------------------------------------------------------------------


  Final Cartesian derivatives :

--------------------------------------------------------------------------------
   No.  Atomic          x             y             z           Radius
        Label       (eV/Angs)     (eV/Angs)    (eV/Angs)      (eV/Angs)
--------------------------------------------------------------------------------
      1 Al    c       0.000000      0.000000      0.000000      0.000000
      2 Al    c       0.000000      0.000000      0.000000      0.000000
      3 Al    c       0.000000      0.000000      0.000000      0.000000
      4 F     c       0.000000      0.000000      0.000000      0.000000
      5 F     c       0.000000      0.000000      0.000000      0.000000
      6 F     c       0.000000      0.000000      0.000000      0.000000
      7 F     c       0.000000      0.000000      0.000000      0.000000
      8 F     c       0.000000      0.000000      0.000000      0.000000
      9 F     c       0.000000      0.000000      0.000000      0.000000
     10 F     c       0.000000      0.000000      0.000000      0.000000
     11 F     c       0.000000      0.000000      0.000000      0.000000
     12 F     c       0.000000      0.000000      0.000000      0.000000
     13 F     s      -0.000000      0.000000      0.000000      0.000000
     14 F     s       0.000001     -0.000001      0.000000      0.000000
     15 F     s       0.000000      0.000001      0.000000      0.000000
     16 F     s       0.000000      0.000001     -0.000000      0.000000
     17 F     s       0.000001      0.000001     -0.000001      0.000000
     18 F     s      -0.000002     -0.000001      0.000001      0.000000
     19 F     s      -0.000000      0.000000     -0.000000      0.000000
     20 F     s      -0.000000     -0.000000      0.000000      0.000000
     21 F     s      -0.000001     -0.000001     -0.000001      0.000000
--------------------------------------------------------------------------------
  Maximum abs         0.000002      0.000001      0.000001      0.000000
--------------------------------------------------------------------------------


  Born effective charge tensors : 

-------------------------------------------------------------------------------
  Atom             x           y             z
-------------------------------------------------------------------------------
    1 Al    x       1.5827     -0.2736     -0.2299
            y      -0.2902      0.7623      0.3708
            z      -0.2564      0.3269      0.7660
-------------------------------------------------------------------------------
    2 Al    x       1.6231     -0.1137      0.4488
            y      -0.1444      0.6187      0.0449
            z       0.4149      0.0775      1.1030
-------------------------------------------------------------------------------
    3 Al    x       0.8208      0.0092      0.0058
            y       0.0362      0.6786      0.3407
            z      -0.0396      0.3498      1.7214
-------------------------------------------------------------------------------
    4 F     x      -0.4390      0.1871     -0.1615
            y       0.1570     -0.2940     -0.2078
            z      -0.1311     -0.1763     -0.3625
-------------------------------------------------------------------------------
    5 F     x      -0.3451     -0.2257      0.0427
            y      -0.2200     -0.2685     -0.0787
            z       0.0583     -0.1332     -0.5358
-------------------------------------------------------------------------------
    6 F     x      -0.6066     -0.0360     -0.0049
            y       0.0203     -0.0524      0.0898
            z      -0.0201      0.0711     -0.5020
-------------------------------------------------------------------------------
    7 F     x      -0.4829      0.1547     -0.0394
            y       0.1641     -0.0829     -0.1087
            z      -0.0413     -0.0578     -0.5439
-------------------------------------------------------------------------------
    8 F     x      -0.4675      0.0692     -0.0666
            y       0.0531     -0.3054      0.0070
            z      -0.0522     -0.0252     -0.2056
-------------------------------------------------------------------------------
    9 F     x      -0.2540      0.0737     -0.1230
            y       0.0473     -0.2810     -0.0341
            z      -0.0900     -0.0344     -0.4714
-------------------------------------------------------------------------------
   10 F     x      -0.5537      0.0166      0.0135
            y      -0.0034     -0.4709     -0.1746
            z       0.0396     -0.2054     -0.0456
-------------------------------------------------------------------------------
   11 F     x      -0.5550      0.0795      0.0118
            y       0.1036     -0.0474     -0.2264
            z      -0.0096     -0.1684     -0.5240
-------------------------------------------------------------------------------
   12 F     x      -0.3228      0.0592      0.1027
            y       0.0763     -0.2570     -0.0229
            z       0.1275     -0.0245     -0.3996
-------------------------------------------------------------------------------




  Moment of inertia tensor (10^-46 x kgm^2): 

-------------------------------------------------------------------------------
                x           y           z           Principal axis system
-------------------------------------------------------------------------------
       x        154.88        2.44        0.02          154.277414
       y          2.44      204.02      -24.21          157.215194
       z          0.02      -24.21      169.08          216.482219
-------------------------------------------------------------------------------
  Centre of mass (Ang) =     0.606379    -1.405619     0.070024
-------------------------------------------------------------------------------


  Vibrational Frequency Calculation : 

--------------------------------------------------------------------------------

  Frequencies (cm-1) and Eigenvectors : 

  Frequency      -0.0000    0.0000    0.0000    7.6894   32.1587   38.2653
  IR Intensity    0.0000    0.0000    0.0000    0.0003    0.0006    0.0002
     in X         0.0000    0.0000    0.0000    0.0001    0.0001    0.0001
     in Y         0.0000    0.0000    0.0000    0.0000    0.0000    0.0000
     in Z         0.0000    0.0000    0.0000    0.0002    0.0005    0.0000
  Raman Intsty    0.0000    0.0000    0.0000    0.0024    0.0092    0.0032

     1 x      -0.016556  0.326383 -0.017009  0.260796  0.058507 -0.072394
     1 y       0.041960  0.019013  0.323986  0.101852 -0.103477  0.212049
     1 z      -0.324121 -0.014210  0.042811 -0.003949  0.105242 -0.135250
     2 x      -0.016556  0.326383 -0.017009 -0.076454 -0.029053  0.008982
     2 y       0.041960  0.019013  0.323986 -0.137339 -0.136581 -0.228089
     2 z      -0.324121 -0.014210  0.042811 -0.192961 -0.043125  0.224919
     3 x      -0.016556  0.326383 -0.017009 -0.198405 -0.043245  0.050928
     3 y       0.041960  0.019013  0.323986  0.037903  0.222842  0.008204
     3 z      -0.324121 -0.014210  0.042811  0.214992 -0.084127 -0.080474
     4 x      -0.013893  0.273894 -0.014274 -0.092499  0.016949  0.073764
     4 y       0.035212  0.015955  0.271883 -0.136054 -0.114258 -0.221968
     4 z      -0.271996 -0.011925  0.035926 -0.211084  0.000512  0.215602
     5 x      -0.013893  0.273894 -0.014274 -0.192336  0.001182  0.089955
     5 y       0.035212  0.015955  0.271883  0.021576  0.190452 -0.011445
     5 z      -0.271996 -0.011925  0.035926  0.217241 -0.153040 -0.231245
     6 x      -0.013893  0.273894 -0.014274 -0.106520 -0.063754 -0.010056
     6 y       0.035212  0.015955  0.271883 -0.109934 -0.108250 -0.205811
     6 z      -0.271996 -0.011925  0.035926 -0.202761 -0.079864  0.264497
     7 x      -0.013893  0.273894 -0.014274 -0.181702 -0.083013  0.008149
     7 y       0.035212  0.015955  0.271883  0.047437  0.219275  0.037615
     7 z      -0.271996 -0.011925  0.035926  0.253407  0.031351  0.057116
     8 x      -0.013893  0.273894 -0.014274  0.082828 -0.036968 -0.157854
     8 y       0.035212  0.015955  0.271883 -0.139771 -0.175251 -0.092320
     8 z      -0.271996 -0.011925  0.035926 -0.092800 -0.038690  0.109743
     9 x      -0.013893  0.273894 -0.014274 -0.173135  0.013452  0.108066
     9 y       0.035212  0.015955  0.271883 -0.053519 -0.033787 -0.211573
     9 z      -0.271996 -0.011925  0.035926 -0.006721 -0.061092  0.049010
    10 x      -0.013893  0.273894 -0.014274  0.305161 -0.043773 -0.250458
    10 y       0.035212  0.015955  0.271883  0.253311 -0.407345  0.370804
    10 z      -0.271996 -0.011925  0.035926  0.048053 -0.011746 -0.046378
    11 x      -0.013893  0.273894 -0.014274  0.368518  0.257122  0.233238
    11 y       0.035212  0.015955  0.271883  0.007424  0.010778  0.094297
    11 z      -0.271996 -0.011925  0.035926 -0.209912  0.500158 -0.280659
    12 x      -0.013893  0.273894 -0.014274  0.006443 -0.044762 -0.079929
    12 y       0.035212  0.015955  0.271883  0.106650  0.438900  0.249740
    12 z      -0.271996 -0.011925  0.035926  0.183031 -0.161362 -0.148642


  Frequency      50.5164   76.7913   77.7535  140.2575  154.4288  162.8792
  IR Intensity    0.0004    0.0016    0.0001    0.0072    0.0031    0.0078
     in X         0.0000    0.0008    0.0000    0.0022    0.0008    0.0008
     in Y         0.0000    0.0000    0.0000    0.0051    0.0000    0.0066
     in Z         0.0004    0.0009    0.0000    0.0000    0.0023    0.0004
  Raman Intsty    0.0086    0.0068    0.0179    0.0018    0.0002    0.0001

     1 x      -0.000222 -0.029900 -0.013422  0.072568 -0.065312 -0.083346
     1 y      -0.144724 -0.164154 -0.006855  0.049654 -0.058794 -0.001358
     1 z       0.018599  0.002045 -0.004657 -0.076257 -0.095071 -0.038912
     2 x      -0.019866  0.029519 -0.063773  0.040173  0.163554  0.115468
     2 y      -0.115958  0.182916  0.037065  0.115270  0.031451 -0.065274
     2 z       0.072061  0.047054 -0.010008 -0.005067 -0.001580 -0.000567
     3 x       0.013358 -0.032414  0.098582 -0.037448 -0.010593 -0.059398
     3 y       0.269589  0.001394 -0.079052 -0.033516 -0.009362  0.230420
     3 z      -0.073698  0.003632  0.011217  0.050180  0.165147  0.064793
     4 x       0.157534 -0.162516  0.184885 -0.027821  0.235006  0.073104
     4 y      -0.180802  0.422496 -0.084944 -0.102477 -0.143304 -0.208701
     4 z       0.122942  0.175401  0.074234 -0.297921 -0.118780 -0.204881
     5 x       0.118444 -0.032302 -0.130750 -0.077407  0.269496 -0.344513
     5 y       0.406208 -0.013862 -0.303645 -0.013622  0.099489  0.034896
     5 z       0.154290 -0.024702 -0.091137  0.184529 -0.252708  0.305044
     6 x      -0.241454  0.344105 -0.406534 -0.028422  0.157926  0.384252
     6 y      -0.096455  0.228600  0.030308  0.048132  0.041620 -0.052609
     6 z      -0.044942 -0.203645 -0.172073  0.240440 -0.068096  0.111677
     7 x      -0.090415  0.001703  0.403602 -0.074153 -0.236195  0.464154
     7 y       0.220225 -0.014268 -0.173414 -0.026074  0.112288 -0.025850
     7 z      -0.412481 -0.021085  0.144062 -0.049126  0.415869 -0.188780
     8 x       0.001912 -0.137825 -0.035388  0.233363  0.006358 -0.134867
     8 y      -0.166909 -0.400852 -0.088239  0.284715  0.040152 -0.071298
     8 z       0.087510  0.065453  0.029964  0.065325 -0.051304 -0.099473
     9 x       0.024100 -0.026218 -0.040230 -0.040808 -0.047362 -0.002979
     9 y       0.272816  0.000867  0.583374  0.028692  0.179932 -0.005991
     9 z       0.083993  0.079212  0.060512  0.080830  0.291295  0.130741
    10 x      -0.014317 -0.190977 -0.089329 -0.563410  0.023598  0.030969
    10 y       0.034202 -0.013807  0.008285 -0.273800 -0.233217 -0.044454
    10 z       0.065976  0.045633  0.002456 -0.159060 -0.146919 -0.052419
    11 x       0.046264  0.382804  0.149542  0.405213 -0.188541 -0.155144
    11 y      -0.188681 -0.237300 -0.022852  0.000311 -0.083936  0.003097
    11 z      -0.194538 -0.179384 -0.000344 -0.077555 -0.246424 -0.057261
    12 x       0.005951 -0.139694 -0.061284  0.083724 -0.324731 -0.282473
    12 y      -0.311219  0.004107  0.109329 -0.102467  0.030715  0.175736
    12 z       0.117037  0.000281 -0.043566  0.049650  0.095446  0.025188


  Frequency     169.0139  171.7763  186.8616  204.3411  207.9861  224.8995
  IR Intensity    0.0003    0.0028    0.0038    0.0048    0.0047    0.0135
     in X         0.0001    0.0022    0.0007    0.0000    0.0039    0.0046
     in Y         0.0001    0.0000    0.0030    0.0047    0.0002    0.0006
     in Z         0.0001    0.0006    0.0001    0.0001    0.0006    0.0083
  Raman Intsty    0.0006    0.0007    0.0154    0.0054    0.0017    0.0013

     1 x       0.063551 -0.108775 -0.033254  0.066032  0.163800  0.104545
     1 y      -0.135923 -0.109345  0.022062  0.137216 -0.160812  0.156022
     1 z       0.004581  0.158012 -0.001036 -0.124156  0.131977 -0.137576
     2 x      -0.007534 -0.077298  0.141733 -0.036071 -0.014795 -0.004132
     2 y       0.113407  0.136235 -0.001342 -0.259848 -0.120386 -0.112780
     2 z       0.133423 -0.082544  0.026644  0.072828  0.015669  0.000179
     3 x      -0.097741  0.111764 -0.055057 -0.021444 -0.050724  0.038811
     3 y       0.007537 -0.027301 -0.148178 -0.049407  0.239062  0.054509
     3 z      -0.132181  0.011341 -0.050425  0.061622 -0.104664 -0.080277
     4 x      -0.159371 -0.242451  0.228870 -0.532687 -0.160488 -0.178596
     4 y       0.041294 -0.142301 -0.206115  0.088268 -0.067191  0.040596
     4 z      -0.085115 -0.550177 -0.123832 -0.006285 -0.070340  0.011348
     5 x      -0.200122  0.344838 -0.095881  0.274309 -0.256422 -0.145535
     5 y      -0.164844  0.130771 -0.198263  0.151162 -0.037325 -0.083896
     5 z      -0.302650 -0.154272 -0.105260 -0.116031 -0.279709 -0.000051
     6 x      -0.056753 -0.008017  0.270455  0.023941  0.136331  0.245968
     6 y       0.035793  0.055907  0.060984 -0.174798 -0.053707 -0.144425
     6 z       0.440985  0.253253 -0.226252 -0.245568 -0.204224  0.296075
     7 x      -0.123877  0.157899 -0.358968  0.229494  0.130694 -0.136849
     7 y       0.005091 -0.034392 -0.049340 -0.167404  0.194077  0.154265
     7 z      -0.247390  0.083900 -0.298158 -0.162704  0.205065  0.201387
     8 x       0.147978 -0.161384  0.001489  0.113897  0.331450 -0.178795
     8 y       0.079768 -0.174862 -0.021421  0.089886  0.052533 -0.357072
     8 z       0.179736 -0.053619 -0.001399  0.102852  0.181589 -0.043927
     9 x      -0.081215  0.038123 -0.076770 -0.073898  0.019268  0.013690
     9 y       0.123743  0.086830  0.146491  0.083895 -0.007960  0.413362
     9 z       0.219308 -0.117539  0.282217  0.364463  0.064227 -0.073301
    10 x       0.475913 -0.054082 -0.099947  0.027551 -0.290759  0.005413
    10 y      -0.082554  0.260485  0.355927 -0.032866  0.127665 -0.097521
    10 z       0.012354  0.259489  0.110348 -0.168048  0.225730 -0.212291
    11 x       0.108807  0.062935  0.059078  0.022739 -0.291575 -0.079027
    11 y      -0.161043 -0.119177  0.120707  0.193520 -0.169209  0.225046
    11 z      -0.127158  0.133325  0.392877  0.108975 -0.125476  0.068063
    12 x      -0.061641 -0.049310  0.008014 -0.095496  0.264386  0.287826
    12 y       0.140603 -0.062771 -0.057086 -0.026655  0.011326 -0.266837
    12 z      -0.097010  0.042195 -0.000969  0.110078 -0.048080  0.012085


  Frequency     233.1733  258.1167  262.0036  269.7046  285.0038  323.0039
  IR Intensity    0.0286    0.0196    0.0835    0.0746    0.0903    0.0003
     in X         0.0237    0.0126    0.0036    0.0386    0.0677    0.0000
     in Y         0.0041    0.0024    0.0390    0.0032    0.0001    0.0000
     in Z         0.0009    0.0046    0.0410    0.0328    0.0225    0.0002
  Raman Intsty    0.0027    0.0100    0.0008    0.0000    0.0128    0.2750

     1 x       0.181573  0.351175 -0.123877 -0.048567  0.059786  0.120314
     1 y      -0.025522 -0.105932 -0.266643  0.175766 -0.020614 -0.035493
     1 z       0.010961 -0.071574 -0.110174  0.328275 -0.100279 -0.173828
     2 x       0.039293  0.032498 -0.023087 -0.307604 -0.281671 -0.189154
     2 y       0.021913 -0.014525 -0.196417 -0.102527  0.146195  0.050851
     2 z       0.001110 -0.319538 -0.105254 -0.089296 -0.020206  0.087691
     3 x       0.112116 -0.152135  0.013084 -0.030143 -0.335592  0.047359
     3 y      -0.210313  0.037577 -0.097685 -0.056792 -0.109822  0.010600
     3 z       0.081089  0.240792 -0.172603  0.180267 -0.197225  0.112701
     4 x      -0.093436  0.195078 -0.093387  0.011955  0.225734 -0.021038
     4 y       0.030553  0.278185  0.106185 -0.158111 -0.176822 -0.175761
     4 z      -0.113412  0.157198  0.187239  0.153692  0.084573  0.026261
     5 x       0.193164  0.037093  0.047333  0.120826  0.083044  0.018184
     5 y      -0.015780  0.035706  0.103668 -0.057305  0.379132 -0.078517
     5 z       0.371492 -0.239073  0.279776 -0.164544  0.012939 -0.019862
     6 x      -0.065446 -0.067256  0.215923  0.365709  0.152143  0.127605
     6 y       0.005771 -0.155160 -0.226753 -0.064882  0.182444  0.121196
     6 z       0.009038  0.329308  0.115471 -0.030475  0.066408 -0.035954
     7 x      -0.227536  0.066742 -0.077885 -0.047259  0.178386 -0.045224
     7 y      -0.103582 -0.103309 -0.019338 -0.106652 -0.283605  0.024652
     7 z      -0.156779 -0.160504  0.198691 -0.231364  0.158748 -0.057329
     8 x       0.085976  0.148744  0.168138 -0.103105  0.056316  0.303223
     8 y      -0.272337 -0.131040  0.346538  0.212241 -0.111770 -0.113920
     8 z       0.111151 -0.251935 -0.136754 -0.085612  0.191371  0.451567
     9 x       0.034465 -0.168942 -0.026081 -0.105664 -0.333043  0.085615
     9 y       0.143847 -0.016390  0.308942  0.229620 -0.040969  0.059886
     9 z       0.068437  0.001625 -0.113784 -0.241095  0.087926 -0.505966
    10 x      -0.130836 -0.225843  0.010637 -0.003645  0.064143  0.010625
    10 y      -0.015369  0.136632  0.232707 -0.220557  0.023248  0.066314
    10 z       0.021593  0.019836  0.045268  0.214573 -0.092002 -0.168207
    11 x      -0.335447 -0.137246  0.105302  0.073662 -0.006846 -0.055410
    11 y      -0.016808  0.004267 -0.232268 -0.002671  0.034345  0.075346
    11 z      -0.179361  0.106394  0.124296 -0.249454  0.050114  0.112215
    12 x       0.142304 -0.124281 -0.190446  0.147867  0.244433 -0.397984
    12 y       0.498623  0.049874  0.048524  0.148719 -0.024781 -0.010129
    12 z      -0.243172  0.216278 -0.237810  0.134691 -0.181481  0.165620


  Frequency     433.1744  443.6205  464.0891  542.1391  550.9234  577.2395
  IR Intensity    0.0090    0.1216    0.1098    0.0192    0.0134    0.0211
     in X         0.0062    0.0548    0.0470    0.0040    0.0124    0.0156
     in Y         0.0000    0.0036    0.0100    0.0023    0.0007    0.0004
     in Z         0.0028    0.0633    0.0527    0.0128    0.0004    0.0051
  Raman Intsty    2.5844    0.1978    0.0030    0.1210    0.2103    0.1509

     1 x       0.185442 -0.210817 -0.494585  0.201894 -0.009746 -0.287685
     1 y      -0.176080  0.190984  0.035074 -0.056399  0.002009  0.117793
     1 z      -0.179796  0.161079 -0.022616 -0.044657  0.001592  0.124366
     2 x      -0.505467 -0.333168  0.031295 -0.121629 -0.223915 -0.012689
     2 y       0.089447  0.021187 -0.029701  0.010924  0.027575  0.002770
     2 z      -0.146816 -0.366645 -0.128153 -0.063390 -0.128463 -0.014285
     3 x       0.193378  0.158854 -0.030017  0.004099  0.051970  0.008345
     3 y       0.100699 -0.048747  0.132914 -0.024541  0.031032 -0.040551
     3 z       0.229277 -0.346421  0.555486 -0.120329  0.138427 -0.190594
     4 x      -0.073076  0.143481  0.119700  0.255176  0.019284 -0.010828
     4 y      -0.189711  0.129598  0.167824  0.309079  0.026166 -0.015346
     4 z       0.134634 -0.029758 -0.105854 -0.265643 -0.020652  0.024393
     5 x       0.116340  0.064776  0.017949  0.017166 -0.307117 -0.004665
     5 y      -0.236774 -0.136678 -0.026927 -0.025557  0.316679 -0.001499
     5 z       0.069148  0.114587 -0.067035  0.023353 -0.124606 -0.001952
     6 x       0.050676  0.039247  0.009806  0.046582  0.002259 -0.002842
     6 y       0.185445 -0.138622 -0.196035 -0.391171 -0.017676  0.023399
     6 z       0.017323  0.063608 -0.003475 -0.087686 -0.003680  0.020057
     7 x       0.044300  0.024192  0.038564  0.002376 -0.177141 -0.009128
     7 y       0.288807  0.175389  0.059407  0.023884 -0.437450 -0.024486
     7 z      -0.044755  0.028097 -0.064025  0.006912  0.052410 -0.002301
     8 x      -0.169527  0.326617  0.176033 -0.451410  0.008338  0.139463
     8 y       0.117349 -0.200931 -0.092742  0.218371 -0.004813 -0.076369
     8 z      -0.119048  0.084257  0.226328  0.472536 -0.011433 -0.086472
     9 x       0.086184  0.037246 -0.104884  0.006434  0.669393  0.059328
     9 y      -0.105526 -0.094453 -0.007888 -0.006930  0.053490  0.001754
     9 z       0.283031  0.262519 -0.031919  0.007894  0.134639  0.011480
    10 x       0.008280  0.009767  0.069658 -0.000852  0.009256 -0.003009
    10 y       0.095784 -0.089019  0.062833  0.013026  0.000321  0.146567
    10 z      -0.202522  0.161250 -0.151135 -0.066853 -0.001203 -0.479157
    11 x      -0.006013  0.021831  0.051274 -0.013514  0.009519 -0.048481
    11 y      -0.153645  0.217659 -0.065598 -0.119914  0.014156 -0.411425
    11 z       0.089172 -0.068774  0.045706  0.027939  0.002240  0.103666
    12 x       0.093753 -0.208220  0.209743  0.037511 -0.017282  0.228153
    12 y      -0.018489 -0.057684 -0.065661  0.062644 -0.023106  0.262059
    12 z      -0.110993  0.041982 -0.330868  0.153690 -0.041484  0.506229


  Frequency     729.6814  737.0188  748.6032  768.5382  787.0969  814.6671
  IR Intensity    0.0321    0.0260    0.0153    0.0194    0.0075    0.0018
     in X         0.0001    0.0200    0.0043    0.0097    0.0022    0.0003
     in Y         0.0108    0.0028    0.0077    0.0052    0.0008    0.0004
     in Z         0.0213    0.0033    0.0034    0.0045    0.0044    0.0011
  Raman Intsty    0.0598    0.0129    0.0562    0.0091    0.0569    0.0350

     1 x       0.118004 -0.252423  0.115988 -0.055921 -0.019500 -0.076605
     1 y       0.078191 -0.468545  0.226496 -0.093582 -0.277248  0.330395
     1 z       0.137170 -0.289946  0.135306 -0.040448  0.138013 -0.621688
     2 x      -0.181785 -0.077372 -0.055250  0.209213 -0.245305 -0.141365
     2 y       0.529987  0.118625 -0.150980  0.320064 -0.323205 -0.042227
     2 z       0.433351  0.133988  0.102339 -0.298009  0.325754  0.176878
     3 x       0.028548 -0.337591 -0.387667  0.319924  0.427282  0.188442
     3 y      -0.020819  0.102444  0.502324  0.452570  0.206601  0.091956
     3 z       0.022857 -0.028760 -0.111715 -0.091463 -0.018602  0.011990
     4 x       0.011821  0.022623  0.074572 -0.180336  0.173454  0.062020
     4 y      -0.026084  0.016132  0.096909 -0.229410  0.224037  0.071060
     4 z      -0.028215 -0.024091 -0.087661  0.207709 -0.208857 -0.072084
     5 x      -0.018026  0.170855  0.327185  0.037571 -0.073197 -0.030112
     5 y       0.023259 -0.171203 -0.350646 -0.085946  0.043514  0.014138
     5 z      -0.010694  0.055299  0.121314  0.027672 -0.019999 -0.004921
     6 x       0.048049  0.009788 -0.007026  0.004001  0.007482  0.009501
     6 y      -0.526014 -0.120850  0.088109 -0.172422  0.155863  0.001839
     6 z      -0.131403 -0.028981  0.012408 -0.014550  0.013862 -0.005674
     7 x       0.005447  0.025211 -0.075851 -0.161188 -0.105700 -0.041632
     7 y       0.009154  0.018415 -0.262303 -0.375174 -0.213860 -0.082676
     7 z      -0.003387 -0.002162  0.039547  0.058613  0.030286  0.010305
     8 x       0.148755  0.057030  0.030139 -0.077623  0.062802  0.079179
     8 y      -0.071185 -0.008281 -0.016279  0.023107 -0.002004 -0.042660
     8 z      -0.291254 -0.091726 -0.050664  0.149094 -0.144675 -0.085893
     9 x      -0.045574  0.220965  0.159950 -0.231847 -0.287571 -0.108450
     9 y      -0.017006  0.031775  0.027547 -0.060964 -0.042424 -0.023324
     9 z      -0.021615 -0.008619 -0.002570  0.020162 -0.014905 -0.003755
    10 x      -0.007270  0.018578 -0.004849  0.000668 -0.004648  0.021070
    10 y       0.029376 -0.020894  0.007554  0.000696  0.058538 -0.147879
    10 z      -0.110386  0.137480 -0.056840  0.010413 -0.154457  0.438265
    11 x      -0.016650  0.052986 -0.023426  0.008492  0.022773 -0.036881
    11 y      -0.052546  0.379493 -0.172395  0.062388  0.222597 -0.307264
    11 z       0.014589 -0.094103  0.043871 -0.016097 -0.067381  0.112411
    12 x      -0.084567  0.217245 -0.091115  0.036361  0.010991  0.080492
    12 y      -0.068873  0.170313 -0.107072  0.028542  0.023068  0.063796
    12 z      -0.124728  0.277020 -0.169467  0.069293  0.035650  0.127110




--------------------------------------------------------------------------------
  Vibrational properties (for cluster):  Temperature  =       0.000 K
--------------------------------------------------------------------------------
  Zero point energy            =        0.685346 eV
--------------------------------------------------------------------------------

  Phonon density of states : 

--------------------------------------------------------------------------------
 Frequency (cm-1) Density of States                                             
--------------------------------------------------------------------------------
    0.00000 |************************************************************  0.086
   12.72917 |                                                              0.000
   25.45835 |********************                                          0.029
   38.18752 |****************************************                      0.057
   50.91670 |                                                              0.000
   63.64587 |                                                              0.000
   76.37505 |****************************************                      0.057
   89.10422 |                                                              0.000
  101.83340 |                                                              0.000
  114.56257 |                                                              0.000
  127.29175 |                                                              0.000
  140.02092 |********************                                          0.029
  152.75010 |****************************************                      0.057
  165.47927 |****************************************                      0.057
  178.20845 |********************                                          0.029
  190.93762 |                                                              0.000
  203.66680 |****************************************                      0.057
  216.39597 |********************                                          0.029
  229.12515 |********************                                          0.029
  241.85432 |                                                              0.000
  254.58350 |****************************************                      0.057
  267.31267 |********************                                          0.029
  280.04184 |********************                                          0.029
  292.77102 |                                                              0.000
  305.50019 |                                                              0.000
  318.22937 |********************                                          0.029
  330.95854 |                                                              0.000
  343.68772 |                                                              0.000
  356.41689 |                                                              0.000
  369.14607 |                                                              0.000
  381.87524 |                                                              0.000
  394.60442 |                                                              0.000
  407.33359 |                                                              0.000
  420.06277 |                                                              0.000
  432.79194 |****************************************                      0.057
  445.52112 |                                                              0.000
  458.25029 |********************                                          0.029
  470.97947 |                                                              0.000
  483.70864 |                                                              0.000
  496.43782 |                                                              0.000
  509.16699 |                                                              0.000
  521.89617 |                                                              0.000
  534.62534 |********************                                          0.029
  547.35451 |********************                                          0.029
  560.08369 |                                                              0.000
  572.81286 |********************                                          0.029
  585.54204 |                                                              0.000
  598.27121 |                                                              0.000
  611.00039 |                                                              0.000
  623.72956 |                                                              0.000
  636.45874 |                                                              0.000
  649.18791 |                                                              0.000
  661.91709 |                                                              0.000
  674.64626 |                                                              0.000
  687.37544 |                                                              0.000
  700.10461 |                                                              0.000
  712.83379 |                                                              0.000
  725.56296 |****************************************                      0.057
  738.29214 |********************                                          0.029
  751.02131 |                                                              0.000
  763.75049 |********************                                          0.029
  776.47966 |********************                                          0.029
  789.20883 |                                                              0.000
  801.93801 |********************                                          0.029
--------------------------------------------------------------------------------



  Time to end of optimisation =       0.0375 seconds


  Peak dynamic memory used =       0.65 MB 


  Timing analysis for GULP :

--------------------------------------------------------------------------------
  Task / Subroutine                                          Time (Seconds)
--------------------------------------------------------------------------------
  Calculation of real space energy and derivatives                0.0025
  Calculation of phonons                                          0.0016
  Calculation and manipulation of Hessian matrix                  0.0015
--------------------------------------------------------------------------------
  Total CPU time                                                  0.0375
--------------------------------------------------------------------------------


  Job Finished at 14:38.55 25th May        2022                               

