********************************************************************************
*                       GENERAL UTILITY LATTICE PROGRAM                        *
*                                 Julian Gale                                  *
*                       Curtin Institute for Computation                       *
*                           Department of Chemistry                            *
*                    Curtin University, Western Australia                      *
********************************************************************************
* Version = 5.1.1 * Last modified =  24th November 2018                        *
********************************************************************************
*  optimise     - perform optimisation run                                     *
*  conp         - constant pressure calculation                                *
*  shell        - only shells and radii to be optimised                        *
*  phonon       - calculate phonons for final geometry                         *
*  eigenvectors - output phonon eigenvectors                                   *
********************************************************************************

  Job Started  at 14:38.40 25th May        2022                               

  Number of CPUs =     1

  Host name      = login03                                 


  Total number of configurations input =      1

********************************************************************************
*  Input for Configuration =   1                                               *
********************************************************************************

  Formula = Al3F9                                                       

  Number of irreducible atoms/shells =      21


  Total number atoms/shells =      21

  Dimensionality = 0               :  Cluster


  Charge on cluster =  -0.000000


  Initial cluster dipoles : x =     -0.093368 e.Angs
                            y =     -0.351558 e.Angs
                            z =     -0.026661 e.Angs

  Temperature of configuration =  0.000     K 

  Symmetry number =      1

  Cartesian coordinates of cluster :

--------------------------------------------------------------------------------
   No.  Atomic       x           y          z         Charge      Occupancy
        Label      (Angs)      (Angs)     (Angs)        (e)         (Frac)  
--------------------------------------------------------------------------------
      1 Al    c      1.3080      0.0193      2.4304     3.00000    1.000000    
      2 Al    c      1.2559      1.2136     -0.0721     3.00000    1.000000    
      3 Al    c     -0.2937      0.8062     -2.3357     3.00000    1.000000    
      4 F     c     -1.6860     -0.3519     -2.2106     0.59000    1.000000    
      5 F     c      2.0652     -0.3478      0.7292     0.59000    1.000000    
      6 F     c      0.0351      1.8375     -3.7901     0.59000    1.000000    
      7 F     c     -0.3685      1.9262     -0.7930     0.59000    1.000000    
      8 F     c      2.5952      2.4124     -0.3242     0.59000    1.000000    
      9 F     c      1.2806      0.0377     -1.6055     0.59000    1.000000    
     10 F     c      0.4477      1.5253      1.6356     0.59000    1.000000    
     11 F     c      2.5295      0.6122      3.6320     0.59000    1.000000    
     12 F     c      0.0052     -1.1827      2.8215     0.59000    1.000000    
     13 F     s     -1.6860 *   -0.3519 *   -2.2106 *  -1.59000    1.000000    
     14 F     s      2.0652 *   -0.3478 *    0.7292 *  -1.59000    1.000000    
     15 F     s      0.0351 *    1.8375 *   -3.7901 *  -1.59000    1.000000    
     16 F     s     -0.3685 *    1.9262 *   -0.7930 *  -1.59000    1.000000    
     17 F     s      2.5952 *    2.4124 *   -0.3242 *  -1.59000    1.000000    
     18 F     s      1.2806 *    0.0377 *   -1.6055 *  -1.59000    1.000000    
     19 F     s      0.4477 *    1.5253 *    1.6356 *  -1.59000    1.000000    
     20 F     s      2.5295 *    0.6122 *    3.6320 *  -1.59000    1.000000    
     21 F     s      0.0052 *   -1.1827 *    2.8215 *  -1.59000    1.000000    
--------------------------------------------------------------------------------


  Brillouin zone sampling points :

--------------------------------------------------------------------------------
  Point number          x          y          z            Weight
--------------------------------------------------------------------------------
        1           0.000000   0.000000   0.000000     1.00000000
--------------------------------------------------------------------------------


********************************************************************************
*  General input information                                                   *
********************************************************************************

  Species output for all configurations : 

--------------------------------------------------------------------------------
  Species    Type    Atomic    Atomic    Charge       Radii (Angs)     Library
                     Number     Mass       (e)     Cova   Ionic  VDW   Symbol
--------------------------------------------------------------------------------
    Al       Core       13      26.98   3.000000   1.350  0.000  2.050          
    F        Core        9      19.00   0.590000   0.710  0.000  1.300          
    F        Shell       9       0.00  -1.590000   0.710  0.000  1.300          
--------------------------------------------------------------------------------


  Accuracy factor for short range sums = 12.000

  Time limit = Infinity

  Maximum range for interatomic potentials =    100000.000000 Angstroms

  General interatomic potentials :

--------------------------------------------------------------------------------
Atom  Types   Potential      Parameter       Value         Units   Cutoffs(Ang)
  1     2                                                            Min /  Max 
--------------------------------------------------------------------------------
Al   c F    s Buckingham    Buckingham A     3760.0008    eV        0.000 10.000
                            Buckingham rho  0.22200000    Ang       
                            Buckingham C     0.0000000    eV*Ang^6  
--------------------------------------------------------------------------------
F    s F    s Buck 4 range  Buck4 A          1127.7000    eV        0.000 12.000
                            Buck4 rho       0.27530000    Ang       
                            Buck4 C          15.830000    eV*Ang^6  
                            Buck4 minimum    2.7900000    Ang       
--------------------------------------------------------------------------------
F    c F    s Spring (c-s)  Spring k 2       20.770000    eV*Ang^-2 0.000  0.800
                            Spring k 4       0.0000000    eV*Ang^-4 
--------------------------------------------------------------------------------

********************************************************************************
*  Output for configuration   1                                                *
********************************************************************************


  Components of energy : 

--------------------------------------------------------------------------------
  Interatomic potentials     =          10.48559726 eV    
  Monopole - monopole (real) =        -178.72762680 eV    
--------------------------------------------------------------------------------
  Total lattice energy       =        -168.24202954 eV    
--------------------------------------------------------------------------------
  Total lattice energy       =          -16232.7840 kJ/mol
--------------------------------------------------------------------------------


  Number of variables =       27

  Maximum number of calculations  =          2000
  Maximum Hessian update interval =            10
  Maximum step size               =   1.000000000
  Maximum parameter tolerance     =   0.000001000
  Maximum function  tolerance     =   0.000010000
  Maximum gradient  tolerance     =   0.000000010
  Maximum gradient  component     =   0.010000000

  Symmetry not applied to optimisation

  Newton-Raphson optimiser to be used

  BFGS hessian update to be used

  Lower half triangular hessian to be used

  Minimiser to switch to RFO
  When gradient norm is less than     0.010000

  Shell only optimisation

  Start of cluster optimisation :

  Cycle:      0 Energy:      -168.242030  Gnorm:      1.498542  CPU:    0.004
  ** Hessian calculated **
  Cycle:      1 Energy:      -185.731517  Gnorm:      0.511182  CPU:    0.006
  ** Hessian calculated **
  Cycle:      2 Energy:      -187.351710  Gnorm:      0.043848  CPU:    0.007
  Cycle:      3 Energy:      -187.361709  Gnorm:      0.007856  CPU:    0.009
  ** Hessian has required structure
  Cycle:      4 Energy:      -187.361728  Gnorm:      0.007839  CPU:    0.011
  ** Hessian has required structure
  Cycle:      5 Energy:      -187.361729  Gnorm:      0.007825  CPU:    0.012
  ** Hessian has required structure
  Cycle:      6 Energy:      -187.361730  Gnorm:      0.007800  CPU:    0.014
  ** Hessian has required structure
  Cycle:      7 Energy:      -187.361736  Gnorm:      0.007709  CPU:    0.015
  ** Hessian has required structure
  Cycle:      8 Energy:      -187.361766  Gnorm:      0.007219  CPU:    0.017
  ** Hessian has required structure
  Cycle:      9 Energy:      -187.362015  Gnorm:      0.002443  CPU:    0.018
  ** Hessian has required structure
  Cycle:     10 Energy:      -187.362068  Gnorm:      0.000383  CPU:    0.020
  ** Hessian has required structure
  Cycle:     11 Energy:      -187.362069  Gnorm:      0.000182  CPU:    0.021
  ** Hessian has required structure
  Cycle:     12 Energy:      -187.362069  Gnorm:      0.000000  CPU:    0.023
  ** Hessian has required structure
  Cycle:     13 Energy:      -187.362069  Gnorm:      0.000000  CPU:    0.025
  ** Hessian has required structure
  Cycle:     14 Energy:      -187.362069  Gnorm:      0.000000  CPU:    0.026
  ** Hessian has required structure
  Cycle:     15 Energy:      -187.362069  Gnorm:      0.000000  CPU:    0.028
  ** Hessian calculated **

  XYZ File written as 001/3/sp_mod_-10/sp_mod_-10_eig.xyz



  **** Optimisation achieved ****


  Final energy =    -187.36206941 eV
  Final Gnorm  =       0.00000005

  Components of energy : 

--------------------------------------------------------------------------------
  Interatomic potentials     =          38.99395036 eV    
  Monopole - monopole (real) =        -226.35601977 eV    
--------------------------------------------------------------------------------
  Total lattice energy       =        -187.36206941 eV    
--------------------------------------------------------------------------------
  Total lattice energy       =          -18077.5756 kJ/mol
--------------------------------------------------------------------------------

  Final cartesian coordinates of atoms :

--------------------------------------------------------------------------------
   No.  Atomic        x           y          z          Radius
        Label       (Angs)      (Angs)     (Angs)       (Angs) 
--------------------------------------------------------------------------------
     1  Al    c     1.308011    0.019346    2.430420    0.000000
     2  Al    c     1.255918    1.213578   -0.072053    0.000000
     3  Al    c    -0.293719    0.806187   -2.335664    0.000000
     4  F     c    -1.685959   -0.351934   -2.210600    0.000000
     5  F     c     2.065197   -0.347757    0.729191    0.000000
     6  F     c     0.035122    1.837526   -3.790106    0.000000
     7  F     c    -0.368468    1.926204   -0.793041    0.000000
     8  F     c     2.595199    2.412406   -0.324226    0.000000
     9  F     c     1.280595    0.037673   -1.605458    0.000000
    10  F     c     0.447705    1.525261    1.635558    0.000000
    11  F     c     2.529454    0.612200    3.632001    0.000000
    12  F     c     0.005154   -1.182685    2.821450    0.000000
    13  F     s    -1.468239   -0.180870   -2.228849    0.000000
    14  F     s     1.896773   -0.156528    0.842522    0.000000
    15  F     s    -0.011000    1.674124   -3.567837    0.000000
    16  F     s    -0.190922    1.728464   -0.876841    0.000000
    17  F     s     2.388774    2.231244   -0.284762    0.000000
    18  F     s     1.097340    0.236188   -1.536257    0.000000
    19  F     s     0.620233    1.329987    1.536826    0.000000
    20  F     s     2.345542    0.516487    3.444263    0.000000
    21  F     s     0.207147   -1.003895    2.756405    0.000000
--------------------------------------------------------------------------------


  Final Cartesian derivatives :

--------------------------------------------------------------------------------
   No.  Atomic          x             y             z           Radius
        Label       (eV/Angs)     (eV/Angs)    (eV/Angs)      (eV/Angs)
--------------------------------------------------------------------------------
      1 Al    c       0.000000      0.000000      0.000000      0.000000
      2 Al    c       0.000000      0.000000      0.000000      0.000000
      3 Al    c       0.000000      0.000000      0.000000      0.000000
      4 F     c       0.000000      0.000000      0.000000      0.000000
      5 F     c       0.000000      0.000000      0.000000      0.000000
      6 F     c       0.000000      0.000000      0.000000      0.000000
      7 F     c       0.000000      0.000000      0.000000      0.000000
      8 F     c       0.000000      0.000000      0.000000      0.000000
      9 F     c       0.000000      0.000000      0.000000      0.000000
     10 F     c       0.000000      0.000000      0.000000      0.000000
     11 F     c       0.000000      0.000000      0.000000      0.000000
     12 F     c       0.000000      0.000000      0.000000      0.000000
     13 F     s       0.000000      0.000000      0.000000      0.000000
     14 F     s       0.000000     -0.000000      0.000000      0.000000
     15 F     s      -0.000000      0.000001      0.000000      0.000000
     16 F     s       0.000001      0.000000     -0.000000      0.000000
     17 F     s      -0.000000      0.000000      0.000000      0.000000
     18 F     s       0.000000     -0.000000     -0.000000      0.000000
     19 F     s       0.000001      0.000000     -0.000000      0.000000
     20 F     s      -0.000000      0.000001      0.000000      0.000000
     21 F     s       0.000000      0.000000     -0.000000      0.000000
--------------------------------------------------------------------------------
  Maximum abs         0.000001      0.000001      0.000000      0.000000
--------------------------------------------------------------------------------


  Born effective charge tensors : 

-------------------------------------------------------------------------------
  Atom             x           y             z
-------------------------------------------------------------------------------
    1 Al    x       0.7318     -0.4254     -0.1634
            y      -0.4185      1.0337     -0.1252
            z      -0.1731     -0.1465      1.1314
-------------------------------------------------------------------------------
    2 Al    x       0.8413     -0.3275      0.2342
            y      -0.3301      0.9241     -0.0170
            z       0.2337     -0.0179      1.6175
-------------------------------------------------------------------------------
    3 Al    x       0.9823     -0.3183      0.1842
            y      -0.3285      0.8764      0.3381
            z       0.1934      0.3582      1.0381
-------------------------------------------------------------------------------
    4 F     x      -0.2076      0.2828     -0.0800
            y       0.2764     -0.2877     -0.0449
            z      -0.0513     -0.0193     -0.5802
-------------------------------------------------------------------------------
    5 F     x      -0.2861      0.0405     -0.0573
            y       0.0238     -0.3247      0.0547
            z      -0.0463      0.0785     -0.3452
-------------------------------------------------------------------------------
    6 F     x      -0.5278      0.0569     -0.1025
            y       0.0703     -0.3364     -0.2588
            z      -0.1386     -0.3000     -0.1994
-------------------------------------------------------------------------------
    7 F     x      -0.2939     -0.0012     -0.0420
            y       0.0156     -0.2780      0.0115
            z      -0.0512     -0.0129     -0.3631
-------------------------------------------------------------------------------
    8 F     x      -0.2225      0.2749     -0.0961
            y       0.2792     -0.2773     -0.0334
            z      -0.0954     -0.0319     -0.6166
-------------------------------------------------------------------------------
    9 F     x      -0.2606     -0.0155     -0.0182
            y      -0.0109     -0.2863     -0.0306
            z      -0.0312     -0.0584     -0.4091
-------------------------------------------------------------------------------
   10 F     x      -0.2726      0.0133     -0.0226
            y       0.0089     -0.2870      0.0132
            z      -0.0113      0.0418     -0.3755
-------------------------------------------------------------------------------
   11 F     x      -0.2559      0.1510      0.2445
            y       0.1264     -0.4758      0.1351
            z       0.2788      0.1725     -0.3319
-------------------------------------------------------------------------------
   12 F     x      -0.2285      0.2687     -0.0809
            y       0.2873     -0.2810     -0.0426
            z      -0.1076     -0.0642     -0.5660
-------------------------------------------------------------------------------




  Moment of inertia tensor (10^-46 x kgm^2): 

-------------------------------------------------------------------------------
                x           y           z           Principal axis system
-------------------------------------------------------------------------------
       x        242.05       -7.81      -55.82           79.795034
       y         -7.81      259.78       32.34          244.998121
       z        -55.82       32.34      103.89          280.925569
-------------------------------------------------------------------------------
  Centre of mass (Ang) =     0.763778     0.706217     0.009578
-------------------------------------------------------------------------------


  Vibrational Frequency Calculation : 

--------------------------------------------------------------------------------

  Frequencies (cm-1) and Eigenvectors : 

  Frequency      -0.0000    0.0000    0.0000    3.8475    4.8871    9.9689
  IR Intensity    0.0000    0.0000    0.0000    0.0000    0.0000    0.0001
     in X         0.0000    0.0000    0.0000    0.0000    0.0000    0.0000
     in Y         0.0000    0.0000    0.0000    0.0000    0.0000    0.0000
     in Z         0.0000    0.0000    0.0000    0.0000    0.0000    0.0000
  Raman Intsty    0.0000    0.0000    0.0000    0.0000    0.0000    0.0001

     1 x       0.108310  0.065933  0.301680 -0.021368 -0.331048 -0.065045
     1 y       0.278834  0.116501 -0.125570  0.320832 -0.016546  0.060834
     1 z       0.132700 -0.298612  0.017620  0.094806  0.068192  0.028930
     2 x       0.108310  0.065933  0.301680 -0.018051  0.021724  0.114448
     2 y       0.278834  0.116501 -0.125570  0.008866 -0.010673 -0.113075
     2 z       0.132700 -0.298612  0.017620 -0.053718  0.064641 -0.057129
     3 x       0.108310  0.065933  0.301680  0.041796  0.307272 -0.063298
     3 y       0.278834  0.116501 -0.125570 -0.330867  0.028227  0.059985
     3 z       0.132700 -0.298612  0.017620 -0.034012 -0.138936  0.034147
     4 x       0.090892  0.055330  0.253164  0.064562  0.246766 -0.259632
     4 y       0.233993  0.097766 -0.105376 -0.301763  0.020180  0.310932
     4 z       0.111359 -0.250590  0.014786  0.076898 -0.273802  0.159754
     5 x       0.090892  0.055330  0.253164  0.031276 -0.129911 -0.167846
     5 y       0.233993  0.097766 -0.105376  0.122663 -0.043924 -0.192971
     5 z       0.111359 -0.250590  0.014786  0.133721  0.128515  0.026496
     6 x       0.090892  0.055330  0.253164  0.036200  0.401637  0.073879
     6 y       0.233993  0.097766 -0.105376 -0.427893  0.053204 -0.110033
     6 z       0.111359 -0.250590  0.014786 -0.134324 -0.062968 -0.055475
     7 x       0.090892  0.055330  0.253164 -0.020344  0.094602  0.208616
     7 y       0.233993  0.097766 -0.105376 -0.110688 -0.001285  0.166181
     7 z       0.111359 -0.250590  0.014786 -0.152457 -0.104707 -0.043124
     8 x       0.090892  0.055330  0.253164 -0.049903  0.068217  0.312518
     8 y       0.233993  0.097766 -0.105376  0.024511 -0.033513 -0.360371
     8 z       0.111359 -0.250590  0.014786 -0.148510  0.202978 -0.164520
     9 x       0.090892  0.055330  0.253164  0.041804  0.184205 -0.168998
     9 y       0.233993  0.097766 -0.105376 -0.158572  0.017248 -0.192403
     9 z       0.111359 -0.250590  0.014786  0.083753  0.033050  0.023080
    10 x       0.090892  0.055330  0.253164 -0.062779 -0.137457  0.208884
    10 y       0.233993  0.097766 -0.105376  0.151531  0.022340  0.166045
    10 z       0.111359 -0.250590  0.014786 -0.094906 -0.022819 -0.042332
    11 x       0.090892  0.055330  0.253164 -0.066566 -0.364364  0.081242
    11 y       0.233993  0.097766 -0.105376  0.442807 -0.071515 -0.113659
    11 z       0.111359 -0.250590  0.014786  0.043958  0.173871 -0.033585
    12 x       0.090892  0.055330  0.253164  0.022918 -0.361250 -0.272105
    12 y       0.233993  0.097766 -0.105376  0.258795  0.036062  0.317051
    12 z       0.111359 -0.250590  0.014786  0.183435 -0.066845  0.122618


  Frequency      28.0010   39.9232   72.9252   95.6293  155.7247  159.9682
  IR Intensity    0.0000    0.0020    0.0046    0.0020    0.0000    0.0055
     in X         0.0000    0.0010    0.0005    0.0011    0.0000    0.0026
     in Y         0.0000    0.0009    0.0001    0.0007    0.0000    0.0028
     in Z         0.0000    0.0000    0.0040    0.0002    0.0000    0.0001
  Raman Intsty    0.0000    0.0007    0.0000    0.0001    0.0000    0.0954

     1 x       0.031047  0.097102  0.090753  0.036761 -0.012508  0.156859
     1 y      -0.078041  0.039283  0.067558 -0.057758  0.050662  0.050020
     1 z      -0.025185  0.106799  0.031410 -0.032796  0.012333  0.172323
     2 x       0.002435 -0.156179 -0.000984 -0.145772 -0.000758 -0.103915
     2 y      -0.001195 -0.155097  0.000484  0.169656  0.000371 -0.074174
     2 z       0.007246  0.026881 -0.002929  0.076998 -0.002253  0.022677
     3 x      -0.032147  0.018731 -0.060833  0.043191  0.012370  0.029069
     3 y       0.078580  0.077782 -0.082256 -0.060916 -0.050592  0.112796
     3 z       0.021911 -0.126400  0.057620 -0.013665 -0.012747 -0.207928
     4 x      -0.240459 -0.088731 -0.150361 -0.084530 -0.218919  0.023912
     4 y       0.331021  0.156198  0.015751  0.099734  0.241577  0.094023
     4 z       0.111561 -0.452406 -0.309365  0.050636  0.099077 -0.238806
     5 x       0.259641 -0.124285  0.225933 -0.085282 -0.338641  0.050728
     5 y       0.125662 -0.122248  0.161751  0.082014 -0.180645  0.039189
     5 z       0.052435  0.030266  0.069003 -0.092177 -0.101829  0.110008
     6 x       0.251716  0.302154  0.231789  0.350963  0.166474 -0.352486
     6 y      -0.219926  0.217929  0.086081 -0.397358 -0.201535 -0.112827
     6 z      -0.119771  0.065039  0.220509 -0.183238 -0.085957 -0.421427
     7 x       0.146328 -0.115398 -0.161022 -0.089224 -0.170931  0.035780
     7 y       0.252862 -0.105077 -0.207706  0.069178 -0.292034  0.075373
     7 z      -0.121138  0.012943  0.143246 -0.086690  0.177443 -0.156610
     8 x       0.008743 -0.121768 -0.130773 -0.256567  0.017993 -0.087539
     8 y      -0.004293 -0.139047  0.064242  0.306358 -0.008840 -0.064316
     8 z       0.026017  0.017966 -0.389127  0.136802  0.053542  0.018801
     9 x      -0.189522 -0.129403 -0.156238 -0.006067  0.229106 -0.020359
     9 y      -0.160105 -0.119735 -0.195988  0.043102  0.234454  0.074106
     9 z       0.156206  0.015041  0.138379  0.143531 -0.224103 -0.101508
    10 x      -0.213358 -0.110393  0.233779 -0.013712  0.270091  0.128343
    10 y      -0.219935 -0.107537  0.171966  0.032084  0.243324  0.029897
    10 z      -0.078314  0.027837  0.073248  0.138001  0.117614  0.118831
    11 x      -0.251052  0.225162 -0.064259  0.350781 -0.164552 -0.045206
    11 y       0.219597  0.255752 -0.168381 -0.397268  0.200588 -0.263778
    11 z       0.121755 -0.164052  0.277992 -0.183782  0.091684  0.492904
    12 x       0.226372  0.210740 -0.063328 -0.087928  0.210446  0.169097
    12 y      -0.324102  0.009084  0.089222  0.101403 -0.237413  0.022703
    12 z      -0.153484  0.438689 -0.326485  0.040528 -0.124294  0.193212


  Frequency     169.7742  174.8140  204.7996  206.9046  209.8822  210.6914
  IR Intensity    0.0228    0.0002    0.0249    0.0140    0.0011    0.0675
     in X         0.0084    0.0000    0.0083    0.0014    0.0010    0.0067
     in Y         0.0121    0.0000    0.0142    0.0003    0.0000    0.0016
     in Z         0.0024    0.0002    0.0025    0.0123    0.0001    0.0592
  Raman Intsty    0.0001    0.0000    0.0038    0.0000    0.0260    0.0000

     1 x      -0.007322 -0.133234  0.066569  0.255578  0.165754 -0.009164
     1 y       0.016264 -0.123979 -0.023995 -0.187042  0.102179  0.256049
     1 z      -0.003508  0.028493  0.002769 -0.170046  0.132079 -0.077983
     2 x      -0.181176  0.001996  0.082991 -0.033430 -0.287492 -0.071123
     2 y       0.202420 -0.000980 -0.211612  0.016423 -0.236020  0.034944
     2 z       0.094305  0.005941 -0.062828 -0.099477  0.057649 -0.211640
     3 x      -0.002221  0.135701  0.049412 -0.286984  0.064999 -0.063542
     3 y       0.013759  0.122767 -0.015569  0.202470  0.151670 -0.220336
     3 z       0.011672 -0.021151 -0.048280  0.076598 -0.167722 -0.138352
     4 x       0.241545  0.199192  0.038563  0.131654  0.210958 -0.137740
     4 y      -0.289410  0.052124  0.006939 -0.294244  0.013419 -0.072095
     4 z      -0.094062  0.329877  0.089576  0.027334  0.404633  0.287802
     5 x      -0.356362 -0.091210 -0.148656  0.061506  0.039935 -0.086268
     5 y      -0.013780 -0.031775 -0.319262 -0.135760 -0.023672  0.116180
     5 z      -0.112461  0.012938 -0.058013 -0.240151  0.094085 -0.072239
     6 x       0.034282  0.125942 -0.072587  0.327055  0.151601  0.217787
     6 y       0.009609  0.098265  0.160586 -0.118087  0.141215  0.267597
     6 z       0.016828 -0.025132  0.051244 -0.010989 -0.136491  0.263646
     7 x       0.001835  0.016456  0.263629 -0.145184 -0.151467 -0.011432
     7 y       0.317022  0.049340  0.100612  0.146592 -0.044285 -0.022567
     7 z      -0.160930  0.013757 -0.151709  0.111277 -0.017363 -0.243928
     8 x       0.160106 -0.233957 -0.418605  0.030226 -0.189852  0.064332
     8 y      -0.213557  0.114930  0.411196 -0.014847 -0.314748 -0.031600
     8 z      -0.089063 -0.696162  0.208565  0.089935  0.011844  0.191409
     9 x      -0.220810  0.083861 -0.116079 -0.177676 -0.025744  0.015288
     9 y      -0.080369  0.035388 -0.335266  0.192829  0.008591 -0.081306
     9 z       0.290887 -0.034810  0.038923 -0.105523 -0.101348 -0.138970
    10 x       0.127191 -0.009889  0.310624  0.167751 -0.115536 -0.132431
    10 y       0.255442 -0.052568  0.077526 -0.157678 -0.061937  0.093238
    10 z       0.212078  0.005787 -0.011873 -0.044124  0.089553 -0.184148
    11 x       0.018505 -0.125369 -0.072789 -0.257249  0.215769 -0.045270
    11 y       0.017360 -0.098548  0.160679  0.083793  0.109686 -0.352350
    11 z      -0.030116  0.026834  0.050654  0.218706  0.054458  0.249701
    12 x       0.220976  0.029656 -0.021202 -0.060823 -0.068051  0.287127
    12 y      -0.279306 -0.164544  0.036300  0.259447  0.150485 -0.001293
    12 z      -0.155265  0.351082 -0.088266  0.183432 -0.425595  0.156717


  Frequency     233.3554  262.7340  277.6219  352.6594  388.7899  401.1049
  IR Intensity    0.0514    0.0314    0.0346    0.0000    0.0009    0.0016
     in X         0.0201    0.0031    0.0173    0.0000    0.0001    0.0002
     in Y         0.0258    0.0007    0.0168    0.0000    0.0000    0.0000
     in Z         0.0055    0.0275    0.0005    0.0000    0.0008    0.0014
  Raman Intsty    0.0039    0.0000    0.0490    0.5296    0.0000    0.0000

     1 x      -0.256698 -0.176249  0.123955 -0.026531 -0.033718  0.008548
     1 y       0.290946 -0.079815  0.164225  0.123679  0.027964 -0.083022
     1 z       0.137711 -0.145338 -0.098815 -0.280846  0.040150  0.153182
     2 x       0.210381 -0.022986  0.141070 -0.197104 -0.027569 -0.077282
     2 y      -0.239337  0.011292  0.119391 -0.213528  0.013543  0.037965
     2 z      -0.110215 -0.068398 -0.027699  0.030989 -0.082034 -0.229961
     3 x      -0.258708  0.063424  0.173632  0.156318  0.047985  0.091525
     3 y       0.291933  0.135240  0.139821  0.033856 -0.034973  0.033862
     3 z       0.131729 -0.190381  0.049001  0.263236  0.002302  0.144592
     4 x       0.132988  0.162729  0.186483  0.100045 -0.020591  0.098642
     4 y      -0.198180  0.054352  0.142089  0.127357  0.060940  0.086384
     4 z      -0.084219  0.198387  0.024104 -0.104091  0.012896 -0.038625
     5 x      -0.013983  0.291818 -0.284449  0.227877  0.118661 -0.262791
     5 y      -0.042344  0.213314 -0.169659 -0.089763 -0.352342  0.414158
     5 z       0.267101  0.010758 -0.210872 -0.203252  0.285499  0.035743
     6 x       0.151243 -0.009919 -0.125568 -0.094133 -0.043209 -0.044332
     6 y      -0.157515  0.099517 -0.046427 -0.154599  0.025308 -0.091155
     6 z      -0.091423 -0.239423 -0.151214  0.144471  0.032017  0.086341
     7 x       0.092894 -0.225199 -0.142917 -0.046620 -0.451203 -0.281093
     7 y       0.072319 -0.276478 -0.227987  0.269031  0.155460  0.261166
     7 z       0.243674  0.109379  0.297026  0.164263 -0.193066  0.104890
     8 x      -0.061605  0.080565  0.142829 -0.271012  0.002639  0.024060
     8 y       0.094102 -0.039577  0.132471 -0.248677 -0.001297 -0.011819
     8 z       0.036239  0.239728 -0.026130  0.050024  0.007854  0.071593
     9 x      -0.172787 -0.248424 -0.120301  0.293812  0.107437  0.191493
     9 y       0.035668 -0.234630 -0.250295 -0.122154  0.241273 -0.379134
     9 z      -0.205436  0.118363  0.277564 -0.007057  0.387272 -0.247893
    10 x      -0.062115  0.271969 -0.311885 -0.108035  0.232875  0.261822
    10 y       0.148466  0.253502 -0.144982  0.299200 -0.048207 -0.251698
    10 z      -0.217568  0.029791 -0.205755 -0.018478 -0.456586 -0.162236
    11 x       0.159844 -0.142869 -0.016070 -0.175694  0.051059  0.095318
    11 y      -0.161741 -0.024461 -0.100217 -0.114533 -0.029165  0.066108
    11 z      -0.065830 -0.215211  0.174604 -0.098222 -0.008657  0.065372
    12 x       0.137002 -0.018833  0.149158  0.153980  0.018183 -0.110276
    12 y      -0.200152 -0.125040  0.160424  0.100861 -0.059757 -0.080669
    12 z      -0.072277  0.229789 -0.086960  0.056399 -0.020061  0.004006


  Frequency     469.1713  511.1445  518.5476  540.0710  545.3217  603.3372
  IR Intensity    0.0043    0.0391    0.0033    0.0011    0.0344    0.1291
     in X         0.0008    0.0039    0.0006    0.0001    0.0116    0.0434
     in Y         0.0034    0.0009    0.0028    0.0000    0.0193    0.0726
     in Z         0.0000    0.0343    0.0000    0.0010    0.0035    0.0131
  Raman Intsty    2.3245    0.0000    3.5994    0.0000    0.0015    0.0011

     1 x       0.003674  0.030148 -0.017404 -0.284712  0.246571  0.126036
     1 y       0.000055 -0.102312  0.081213  0.343598 -0.299844 -0.156140
     1 z      -0.007860  0.137529 -0.128694  0.126118 -0.103978 -0.045940
     2 x       0.078018  0.028305 -0.001493 -0.004522 -0.144849  0.409627
     2 y       0.146345 -0.013905 -0.002069  0.002222  0.176109 -0.527822
     2 z      -0.002059  0.084225  0.000160 -0.013454  0.077753 -0.224801
     3 x       0.007585  0.066854  0.069812  0.269216  0.229834  0.112953
     3 y      -0.001867  0.054660  0.038368 -0.335988 -0.291621 -0.149713
     3 z       0.003777  0.151108  0.130823 -0.172233 -0.153771 -0.084870
     4 x       0.006559  0.251407  0.270646  0.031578  0.016515 -0.007200
     4 y      -0.001928  0.209025  0.226316  0.047194  0.024464  0.031790
     4 z       0.007140 -0.019439 -0.025635  0.001757  0.001080  0.010254
     5 x       0.195976  0.105551 -0.126789  0.183645 -0.084063 -0.168793
     5 y      -0.392708 -0.012065  0.059179 -0.110311 -0.028108  0.250375
     5 z       0.178160 -0.309902  0.303696 -0.314714  0.366318 -0.001921
     6 x       0.006457 -0.061491 -0.069156 -0.021119 -0.011813 -0.019865
     6 y       0.002724 -0.192027 -0.206018 -0.018935 -0.008619  0.012180
     6 z      -0.000461  0.273794  0.286633  0.049110  0.026020  0.023685
     7 x      -0.384397 -0.060361  0.005378 -0.037640  0.118457 -0.270080
     7 y       0.181343 -0.180099 -0.186829  0.235127  0.149318  0.199721
     7 z      -0.127939 -0.314983 -0.273421  0.277101  0.358604 -0.008652
     8 x       0.263711  0.005480 -0.022815 -0.000056 -0.035571  0.032347
     8 y       0.239434 -0.002692 -0.022601  0.000027  0.005816  0.067506
     8 z      -0.049096  0.016306  0.003936 -0.000165  0.012914  0.000274
     9 x       0.013909 -0.266151 -0.274939 -0.322051 -0.286083 -0.109854
     9 y      -0.303269  0.090959  0.131957  0.178302  0.071133  0.221421
     9 z      -0.363597 -0.167977 -0.137134 -0.097121 -0.234818  0.173454
    10 x      -0.215178 -0.119750  0.147311  0.170648 -0.101874 -0.192038
    10 y       0.098214  0.268578 -0.256553 -0.300465  0.257556  0.161383
    10 z       0.375589 -0.220951  0.148909  0.118677 -0.297007  0.223570
    11 x       0.005715  0.229396 -0.244473  0.047728 -0.025651 -0.028707
    11 y       0.003088  0.109545 -0.119895  0.005864 -0.001822  0.016523
    11 z      -0.002670  0.225823 -0.235038  0.030067 -0.015154 -0.002623
    12 x       0.000863 -0.233402  0.254165 -0.028880  0.014988 -0.008724
    12 y       0.000870 -0.217870  0.234412 -0.048520  0.025215  0.032539
    12 z      -0.009809  0.073013 -0.074675  0.006274 -0.003465  0.005718


  Frequency     647.3780  729.5072  777.2071  797.0848  809.8201  812.1512
  IR Intensity    0.1475    0.0189    0.0002    0.0003    0.0014    0.0037
     in X         0.0146    0.0124    0.0001    0.0000    0.0001    0.0019
     in Y         0.0035    0.0059    0.0001    0.0000    0.0000    0.0017
     in Z         0.1293    0.0006    0.0000    0.0003    0.0013    0.0001
  Raman Intsty    0.0000    0.2026    0.4438    0.0000    0.0000    0.0278

     1 x      -0.036213  0.031345 -0.086808  0.077810  0.406479  0.405538
     1 y      -0.068762  0.159240 -0.176840  0.223906  0.260119  0.262069
     1 z       0.222680 -0.413761  0.278343 -0.424906  0.209067  0.201321
     2 x       0.201214  0.290185  0.472021  0.180055 -0.021706  0.087615
     2 y      -0.098845  0.219165  0.396284 -0.088452  0.010665  0.075797
     2 z       0.598731 -0.061340 -0.093207  0.535772 -0.064593 -0.016931
     3 x       0.166998  0.284541 -0.250903 -0.334662 -0.228018  0.232031
     3 y       0.004515  0.034859 -0.096230 -0.097727 -0.347776  0.347314
     3 z       0.166485  0.339646 -0.209933 -0.339385  0.321936 -0.314989
     4 x      -0.203446 -0.187252  0.150503  0.172451  0.226189 -0.225662
     4 y      -0.166973 -0.147635  0.121131  0.136169  0.193850 -0.193797
     4 z       0.016460  0.003143 -0.005366 -0.002305 -0.030609  0.031371
     5 x      -0.033761 -0.058214  0.037589 -0.087693 -0.000784 -0.005159
     5 y       0.117088 -0.004354 -0.054855  0.078422 -0.018668 -0.020072
     5 z      -0.183245  0.153574 -0.066326  0.079906 -0.023882 -0.019386
     6 x       0.042230  0.028069 -0.001683 -0.006908  0.069702 -0.069293
     6 y       0.135303  0.121187 -0.028132 -0.058833  0.206925 -0.203283
     6 z      -0.190078 -0.184117  0.051863  0.099334 -0.286453  0.280398
     7 x      -0.198366 -0.054504 -0.064495 -0.084288  0.017424 -0.020172
     7 y       0.055900 -0.049526  0.051592  0.097351 -0.002625 -0.001667
     7 z      -0.152565 -0.107202  0.035728  0.031578 -0.019657  0.017039
     8 x      -0.003643 -0.303811 -0.379088 -0.005492  0.000803 -0.063886
     8 y       0.001789 -0.270205 -0.338477  0.002699 -0.000396 -0.057311
     8 z      -0.010839  0.057493  0.071519 -0.016345  0.002393  0.012008
     9 x      -0.092343 -0.137635  0.063903  0.109792 -0.011633  0.005337
     9 y      -0.055140  0.034661 -0.067781 -0.089278  0.024767 -0.025228
     9 z      -0.191991 -0.082752  0.011972 -0.014148 -0.013065  0.011847
    10 x       0.063692  0.014668 -0.067758  0.076731 -0.025305 -0.026382
    10 y       0.010258 -0.083507  0.053195 -0.093639  0.006497  0.001384
    10 z      -0.248170  0.098627  0.026017 -0.054067 -0.003791 -0.001440
    11 x      -0.159081  0.142838 -0.034660  0.069822 -0.244898 -0.240635
    11 y      -0.077901  0.064808 -0.011932  0.027927 -0.120866 -0.119107
    11 z      -0.157621  0.157387 -0.046263  0.087871 -0.234848 -0.229458
    12 x       0.189094 -0.166376  0.135638 -0.152898 -0.218292 -0.218304
    12 y       0.174023 -0.157890  0.128433 -0.145776 -0.197736 -0.197405
    12 z      -0.059164  0.065261 -0.049596  0.060488  0.054120  0.053247




--------------------------------------------------------------------------------
  Vibrational properties (for cluster):  Temperature  =       0.000 K
--------------------------------------------------------------------------------
  Zero point energy            =        0.707089 eV
--------------------------------------------------------------------------------

  Phonon density of states : 

--------------------------------------------------------------------------------
 Frequency (cm-1) Density of States                                             
--------------------------------------------------------------------------------
    0.00000 |************************************************************  0.143
   12.68986 |                                                              0.000
   25.37973 |************                                                  0.029
   38.06959 |************                                                  0.029
   50.75945 |                                                              0.000
   63.44931 |************                                                  0.029
   76.13918 |                                                              0.000
   88.82904 |************                                                  0.029
  101.51890 |                                                              0.000
  114.20876 |                                                              0.000
  126.89863 |                                                              0.000
  139.58849 |                                                              0.000
  152.27835 |************************                                      0.057
  164.96822 |************************                                      0.057
  177.65808 |                                                              0.000
  190.34794 |                                                              0.000
  203.03780 |************************************************              0.114
  215.72767 |                                                              0.000
  228.41753 |************                                                  0.029
  241.10739 |                                                              0.000
  253.79725 |************                                                  0.029
  266.48712 |************                                                  0.029
  279.17698 |                                                              0.000
  291.86684 |                                                              0.000
  304.55671 |                                                              0.000
  317.24657 |                                                              0.000
  329.93643 |                                                              0.000
  342.62629 |************                                                  0.029
  355.31616 |                                                              0.000
  368.00602 |                                                              0.000
  380.69588 |************                                                  0.029
  393.38575 |************                                                  0.029
  406.07561 |                                                              0.000
  418.76547 |                                                              0.000
  431.45533 |                                                              0.000
  444.14520 |                                                              0.000
  456.83506 |************                                                  0.029
  469.52492 |                                                              0.000
  482.21478 |                                                              0.000
  494.90465 |                                                              0.000
  507.59451 |************************                                      0.057
  520.28437 |                                                              0.000
  532.97424 |************************                                      0.057
  545.66410 |                                                              0.000
  558.35396 |                                                              0.000
  571.04382 |                                                              0.000
  583.73369 |                                                              0.000
  596.42355 |************                                                  0.029
  609.11341 |                                                              0.000
  621.80327 |                                                              0.000
  634.49314 |                                                              0.000
  647.18300 |************                                                  0.029
  659.87286 |                                                              0.000
  672.56273 |                                                              0.000
  685.25259 |                                                              0.000
  697.94245 |                                                              0.000
  710.63231 |                                                              0.000
  723.32218 |************                                                  0.029
  736.01204 |                                                              0.000
  748.70190 |                                                              0.000
  761.39176 |                                                              0.000
  774.08163 |************                                                  0.029
  786.77149 |************                                                  0.029
  799.46135 |************************                                      0.057
--------------------------------------------------------------------------------



  Time to end of optimisation =       0.0379 seconds


  Peak dynamic memory used =       0.65 MB 


  Timing analysis for GULP :

--------------------------------------------------------------------------------
  Task / Subroutine                                          Time (Seconds)
--------------------------------------------------------------------------------
  Calculation of real space energy and derivatives                0.0025
  Calculation of phonons                                          0.0015
  Calculation and manipulation of Hessian matrix                  0.0014
--------------------------------------------------------------------------------
  Total CPU time                                                  0.0379
--------------------------------------------------------------------------------


  Job Finished at 14:38.40 25th May        2022                               

