------------------------------------------------------------
          Invoking FHI-aims ...

          When using FHI-aims, please cite the following reference:

            Volker Blum, Ralf Gehrke, Felix Hanke, Paula Havu,
            Ville Havu, Xinguo Ren, Karsten Reuter, and Matthias Scheffler,
            'Ab Initio Molecular Simulations with Numeric Atom-Centered Orbitals',
            Computer Physics Communications 180, 2175-2196 (2009)

          In addition, many other developments in FHI-aims are likely important for
          your particular application. A partial list of references is given at the end of
          this file. Thank you for giving credit to the authors of these developments.

          For any questions about FHI-aims, please visit our slack channel at

            https://fhi-aims.slack.com

          and our main development and support site at

            https://aims-git.rz-berlin.mpg.de .

          The latter site, in particular, has a wiki to collect information, as well
          as an issue tracker to log discussions, suggest improvements, and report issues
          or bugs. https://aims-git.rz-berlin.mpg.de is also the main development site
          of the project and all new and updated code versions can be obtained there.
          Please send an email to aims-coordinators@fhi-berlin.mpg.de and we will add
          you to these sites. They are for you and everyone is welcome there.

------------------------------------------------------------



  Date     :  20220517, Time     :  111026.503
  Time zero on CPU 1             :   0.402050000000000E-01  s.
  Internal wall clock time zero  :           422017826.503  s.

  FHI-aims created a unique identifier for this run for later identification
  aims_uuid : 5B8AD016-2373-4CEE-ABA3-2AAC07BBD20E

  Build configuration of the current instance of FHI-aims
  -------------------------------------------------------
  FHI-aims version      : 210914
  Commit number         : GITDIR-NOTFOUND
  CMake host system     : Linux-3.10.0-693.17.1.el7.x86_64
  CMake version         : 3.21.1
  Fortran compiler      : /shared/ucl/apps/intel/2018.Update3/impi/2018.3.222/intel64/bin/mpiifort (Intel) version 18.0.3.20180410
  Fortran compiler flags: -O3 -ip -fp-model precise
  C compiler            : /shared/ucl/apps/intel/2018.Update3/compilers_and_libraries_2018.3.222/linux/bin/intel64/icc (Intel) version 18.0.3.20180410
  C compiler flags      : -O3 -ip -fp-model precise -std=gnu99
  ELPA2 kernel          : AVX2
  Using MPI
  Using ScaLAPACK
  Using LibXC
  Using i-PI
  Using RLSY
  Linking against: /shared/ucl/apps/intel/2019.Update5/compilers_and_libraries_2019.5.281/linux/mkl/lib/intel64/libmkl_intel_lp64.so
                   /shared/ucl/apps/intel/2019.Update5/compilers_and_libraries_2019.5.281/linux/mkl/lib/intel64/libmkl_sequential.so
                   /shared/ucl/apps/intel/2019.Update5/compilers_and_libraries_2019.5.281/linux/mkl/lib/intel64/libmkl_core.so
                   /shared/ucl/apps/intel/2019.Update5/compilers_and_libraries_2019.5.281/linux/mkl/lib/intel64/libmkl_blacs_intelmpi_lp64.so
                   /shared/ucl/apps/intel/2019.Update5/compilers_and_libraries_2019.5.281/linux/mkl/lib/intel64/libmkl_scalapack_lp64.so

  Using       24 parallel tasks.
  Task        0 on host node-k98a-025 reporting.
  Task        1 on host node-k98a-025 reporting.
  Task        2 on host node-k98a-025 reporting.
  Task        3 on host node-k98a-025 reporting.
  Task        4 on host node-k98a-025 reporting.
  Task        5 on host node-k98a-025 reporting.
  Task        6 on host node-k98a-025 reporting.
  Task        7 on host node-k98a-025 reporting.
  Task        8 on host node-k98a-025 reporting.
  Task        9 on host node-k98a-025 reporting.
  Task       10 on host node-k98a-025 reporting.
  Task       11 on host node-k98a-025 reporting.
  Task       12 on host node-k98a-025 reporting.
  Task       13 on host node-k98a-025 reporting.
  Task       14 on host node-k98a-025 reporting.
  Task       15 on host node-k98a-025 reporting.
  Task       16 on host node-k98a-025 reporting.
  Task       17 on host node-k98a-025 reporting.
  Task       18 on host node-k98a-025 reporting.
  Task       19 on host node-k98a-025 reporting.
  Task       20 on host node-k98a-025 reporting.
  Task       21 on host node-k98a-025 reporting.
  Task       22 on host node-k98a-025 reporting.
  Task       23 on host node-k98a-025 reporting.

  Performing system and environment tests:
  | Environment variable OMP_NUM_THREADS correctly set to 1.
  | Checking for ScaLAPACK...
  | Testing pdtran()...
  | All pdtran() tests passed.

  Obtaining array dimensions for all initial allocations:
  
  -----------------------------------------------------------------------
  Parsing control.in (first pass over file, find array dimensions only).
  The contents of control.in will be repeated verbatim below
  unless switched off by setting 'verbatim_writeout .false.' .
  in the first line of control.in .
  -----------------------------------------------------------------------
  
  #########################################################################################  Physical model
  #########################################################################################
  xc                 pbesol
  spin               none
  relativistic       atomic_zora scalar
  charge             0.0
  #  SCF convergence
  occupation_type    gaussian 0.01
  mixer              pulay
  n_max_pulay        10
  charge_mix_param   0.5
  sc_accuracy_rho    1E-5
  sc_accuracy_eev    1E-3
  sc_accuracy_etot   1E-6
  sc_accuracy_forces 1E-4
  sc_iter_limit      1500
  #  Relaxation
  #relax_geometry   bfgs 1.e-3
  
  ################################################################################
  #
  #  FHI-aims code project
  #  VB, Fritz-Haber Institut, 2009
  #
  #  Suggested "light" defaults for Al atom (to be pasted into control.in file)
  #  Be sure to double-check any results obtained with these settings for post-processing,
  #  e.g., with the "tight" defaults and larger basis sets.
  #
  ################################################################################
    species        Al
  #     global species definitions
      nucleus             13
      mass                26.9815386
  #
      l_hartree           4
  #
      cut_pot             3.5          1.5  1.0
      basis_dep_cutoff    1e-4
  #
      radial_base         41 5.0
      radial_multiplier   1
      angular_grids       specified
        division   0.6594  110
        division   0.8170  194
        division   0.9059  302
  #      division   1.0363  434
  #      division   1.1443  590
  #      division   1.2621  770
  #      division   2.8177  974
  #      outer_grid   974
        outer_grid   302
  ################################################################################
  #
  #  Definition of "minimal" basis
  #
  ################################################################################
  #     valence basis states
      valence      3  s   2.
      valence      3  p   1.
  #     ion occupancy
      ion_occ      3  s   1.
      ion_occ      2  p   6.
  ################################################################################
  #
  #  Suggested additional basis functions. For production calculations,
  #  uncomment them one after another (the most important basis functions are
  #  listed first).
  #
  #  Constructed for dimers: 2.0 A, 2.5 A, 3.0 A, 3.75 A, 4.5 A
  #
  ################################################################################
  #  "First tier" - improvements: -199.47 meV to -10.63 meV
       ionic 3 d auto
       ionic 3 p auto
  #     hydro 4 f 4.7
       ionic 3 s auto
  #  "Second tier" - improvements: -5.35 meV to -1.57 meV
  #     hydro 5 g 7
  #     hydro 3 d 6
  #     hydro 2 s 11.6
  #     hydro 2 p 0.9
  #  "Third tier" - improvements: -0.63 meV to -0.20 meV
  #     hydro 5 f 7.6
  #     hydro 4 p 7.2
  #     hydro 4 s 3.7
  #     hydro 4 d 7.6
  #  "Fourth tier" - improvements: -0.17 meV to -0.08 meV
  #     hydro 4 d 13.6
  #     hydro 5 g 11.2
  #     hydro 4 d 0.9
  #     hydro 1 s 0.4
  #     hydro 4 p 0.1
  #     hydro 5 f 9.8
  #  Further basis functions that fell out of the optimization - noise level...
  #     hydro 4 p 5
  
  ################################################################################
  #
  #  FHI-aims code project
  #  VB, Fritz-Haber Institut, 2009
  #
  #  Suggested "light" defaults for F atom (to be pasted into control.in file)
  #  Be sure to double-check any results obtained with these settings for post-processing,
  #  e.g., with the "tight" defaults and larger basis sets.
  #
  ################################################################################
    species        F
  #     global species definitions
      nucleus             9
      mass                18.9984032
  #
      l_hartree           4
  #
      cut_pot             3.5  1.5  1.0
      basis_dep_cutoff    1e-4
  #
      radial_base         37 5.0
      radial_multiplier   1
      angular_grids specified
        division   0.4014  110
        division   0.5291  194
        division   0.6019  302
  #      division   0.6814  434
  #      division   0.7989  590
  #      division   0.8965  770
  #      division   1.3427  974
  #      outer_grid   974
        outer_grid   302
  ################################################################################
  #
  #  Definition of "minimal" basis
  #
  ################################################################################
  #     valence basis states
      valence      2  s   2.
      valence      2  p   5.
  #     ion occupancy
      ion_occ      2  s   1.
      ion_occ      2  p   4.
  ################################################################################
  #
  #  Suggested additional basis functions. For production calculations,
  #  uncomment them one after another (the most important basis functions are
  #  listed first).
  #
  #  Constructed for dimers: 1.2 A, 1.418 A, 1.75 A, 2.25 A, 3.25 A
  #
  ################################################################################
  #  "First tier" - improvements: -149.44 meV to -45.88 meV
       hydro 2 p 1.7
       hydro 3 d 7.4
       hydro 3 s 6.8
  #  "Second tier" - improvements: -12.96 meV to -1.56 meV
  #     hydro 4 f 11.2
  #     ionic 2 p auto
  #     hydro 1 s 0.75
  #     hydro 4 d 8.8
  #     hydro 5 g 16.8
  #  "Third tier" - improvements: -0.58 meV to -0.05 meV
  #     hydro 3 p 6.2
  #     hydro 3 s 3.2
  #     hydro 4 f 9.6
  #     hydro 3 s 19.6
  #     hydro 4 d 8.6
  #     hydro 5 g 14.4
  # Further basis functions: -0.05 meV and below
  #     hydro 3 p 4.2
  
  -----------------------------------------------------------------------
  Completed first pass over input file control.in .
  -----------------------------------------------------------------------
  
  
  -----------------------------------------------------------------------
  Parsing geometry.in (first pass over file, find array dimensions only).
  The contents of geometry.in will be repeated verbatim below
  unless switched off by setting 'verbatim_writeout .false.' .
  in the first line of geometry.in .
  -----------------------------------------------------------------------
  
  atom 1.079600862 0.285737716 2.551161037 Al
  atom 1.443708000 0.994561400 -0.171321400 Al
  atom -0.522127585 1.072578564 -2.214924273 Al
  atom -1.547333404 -0.513610944 -2.283879277 F
  atom 2.046989392 -0.386984754 0.969853913 F
  atom 0.165263784 1.685745254 -3.858899594 F
  atom -0.283702626 1.983714481 -0.571013495 F
  atom 2.529294153 2.489270509 -0.289388244 F
  atom 1.120308623 0.068241528 -1.787564377 F
  atom 0.390391671 1.652567423 1.434816302 F
  atom 2.659595530 0.460419019 3.563206609 F
  atom 0.143780359 -1.344361659 2.748171986 F
  
  -----------------------------------------------------------------------
  Completed first pass over input file geometry.in .
  -----------------------------------------------------------------------
  

  Basic array size parameters:
  | Number of species                 :        2
  | Number of atoms                   :       12
  | Max. basis fn. angular momentum   :        2
  | Max. atomic/ionic basis occupied n:        3
  | Max. number of basis fn. types    :        3
  | Max. radial fns per species/type  :        5
  | Max. logarithmic grid size        :     1340
  | Max. radial integration grid size :       41
  | Max. angular integration grid size:      302
  | Max. angular grid division number :        8
  | Radial grid for Hartree potential :     1340
  | Number of spin channels           :        1

------------------------------------------------------------
          Reading file control.in.
------------------------------------------------------------
  XC: Using PBEsol gradient-corrected functionals.
  Spin treatment: No spin polarisation.
  Scalar relativistic treatment of kinetic energy: on-site free-atom approximation to ZORA.
  Charge =   0.000000E+00: Neutral system requested explicitly.
  Occupation type: Gaussian broadening, width =   0.100000E-01 eV.
  Using pulay charge density mixing.
  Pulay mixing - number of memorized iterations:   10
  Charge density mixing - mixing parameter:     0.5000
  Convergence accuracy of self-consistent charge density:  0.1000E-04
  Convergence accuracy of sum of eigenvalues:  0.1000E-02
  Convergence accuracy of total energy:  0.1000E-05
  Convergence accuracy of forces:  0.1000E-03
  Maximum number of s.-c. iterations  :  1500
 
  Reading configuration options for species Al                  .
  | Found nuclear charge :  13.0000
  | Found atomic mass :    26.9815386000000      amu
  | Found l_max for Hartree potential  :   4
  | Found cutoff potl. onset [A], width [A], scale factor :    3.50000    1.50000    1.00000
  | Threshold for basis-dependent cutoff potential is   0.100000E-03
  | Found data for basic radial integration grid :    41 points, outermost radius =    5.000 A
  | Found multiplier for basic radial grid :   1
  | Found angular grid specification: user-specified.
  | Specified grid contains     4 separate shells.
  | Check grid settings after all constraints further below.
  | Found free-atom valence shell :  3 s   2.000
  | Found free-atom valence shell :  3 p   1.000
  | Found free-ion valence shell :  3 s   1.000
  | Found free-ion valence shell :  2 p   6.000
  | Found ionic basis function :  3 d , default cutoff radius.
  | Found ionic basis function :  3 p , default cutoff radius.
  | Found ionic basis function :  3 s , default cutoff radius.
  Species Al                  : Missing cutoff potential type.
  Defaulting to exp(1/x)/(1-x)^2 type cutoff potential.
  Species Al: No 'logarithmic' tag. Using default grid for free atom:
  | Default logarithmic grid data [bohr] : 0.1000E-03 0.1000E+03 0.1012E+01
  | Will include ionic basis functions of  2.0-fold positive Al                   ion.
  Species Al: On-site basis accuracy parameter (for Gram-Schmidt orthonormalisation) not specified.
  Using default value basis_acc =  0.1000000E-03.
  Species Al                  : Using default innermost maximum threshold i_radial=  2 for radial functions.
  Species Al                  : Default cutoff onset for free atom density etc. : 0.35000000E+01 AA.
  Species Al                  : Basic radial grid will be enhanced according to radial_multiplier =   1, to contain    41 grid points.
 
  Reading configuration options for species F                   .
  | Found nuclear charge :   9.0000
  | Found atomic mass :    18.9984032000000      amu
  | Found l_max for Hartree potential  :   4
  | Found cutoff potl. onset [A], width [A], scale factor :    3.50000    1.50000    1.00000
  | Threshold for basis-dependent cutoff potential is   0.100000E-03
  | Found data for basic radial integration grid :    37 points, outermost radius =    5.000 A
  | Found multiplier for basic radial grid :   1
  | Found angular grid specification: user-specified.
  | Specified grid contains     4 separate shells.
  | Check grid settings after all constraints further below.
  | Found free-atom valence shell :  2 s   2.000
  | Found free-atom valence shell :  2 p   5.000
  | Found free-ion valence shell :  2 s   1.000
  | Found free-ion valence shell :  2 p   4.000
  | Found hydrogenic basis function :  2 p   1.700
  | Found hydrogenic basis function :  3 d   7.400
  | Found hydrogenic basis function :  3 s   6.800
  Species F                   : Missing cutoff potential type.
  Defaulting to exp(1/x)/(1-x)^2 type cutoff potential.
  Species F : No 'logarithmic' tag. Using default grid for free atom:
  | Default logarithmic grid data [bohr] : 0.1000E-03 0.1000E+03 0.1012E+01
  Species F : On-site basis accuracy parameter (for Gram-Schmidt orthonormalisation) not specified.
  Using default value basis_acc =  0.1000000E-03.
  Species F                   : Using default innermost maximum threshold i_radial=  2 for radial functions.
  Species F                   : Default cutoff onset for free atom density etc. : 0.35000000E+01 AA.
  Species F                   : Basic radial grid will be enhanced according to radial_multiplier =   1, to contain    37 grid points.
 
  Finished reading input file 'control.in'.
 
------------------------------------------------------------


------------------------------------------------------------
          Reading geometry description geometry.in.
------------------------------------------------------------
  | The smallest distance between any two atoms is         1.85110572 AA.
  | The first atom of this pair is atom number                      2 .
  | The second atom of this pair is atom number                     8 .
  Input structure read successfully.
  The structure contains       12 atoms,  and a total of        120.000 electrons.

  Input geometry:
  | No unit cell requested.
  | Atomic structure:
  |       Atom                x [A]            y [A]            z [A]
  |    1: Species Al            1.07960086        0.28573772        2.55116104
  |    2: Species Al            1.44370800        0.99456140       -0.17132140
  |    3: Species Al           -0.52212759        1.07257856       -2.21492427
  |    4: Species F            -1.54733340       -0.51361094       -2.28387928
  |    5: Species F             2.04698939       -0.38698475        0.96985391
  |    6: Species F             0.16526378        1.68574525       -3.85889959
  |    7: Species F            -0.28370263        1.98371448       -0.57101349
  |    8: Species F             2.52929415        2.48927051       -0.28938824
  |    9: Species F             1.12030862        0.06824153       -1.78756438
  |   10: Species F             0.39039167        1.65256742        1.43481630
  |   11: Species F             2.65959553        0.46041902        3.56320661
  |   12: Species F             0.14378036       -1.34436166        2.74817199

 
  Finished reading input file 'control.in'.
 

------------------------------------------------------------
          Reading geometry description geometry.in.
------------------------------------------------------------
 
  Consistency checks for stacksize environment parameter are next.
 
  | Maximum stacksize for task 0: unlimited
  | Maximum stacksize for task 1: unlimited
  | Maximum stacksize for task 2: unlimited
  | Maximum stacksize for task 3: unlimited
  | Maximum stacksize for task 4: unlimited
  | Maximum stacksize for task 5: unlimited
  | Maximum stacksize for task 6: unlimited
  | Maximum stacksize for task 7: unlimited
  | Maximum stacksize for task 8: unlimited
  | Maximum stacksize for task 9: unlimited
  | Maximum stacksize for task 10: unlimited
  | Maximum stacksize for task 11: unlimited
  | Maximum stacksize for task 12: unlimited
  | Maximum stacksize for task 13: unlimited
  | Maximum stacksize for task 14: unlimited
  | Maximum stacksize for task 15: unlimited
  | Maximum stacksize for task 16: unlimited
  | Maximum stacksize for task 17: unlimited
  | Maximum stacksize for task 18: unlimited
  | Maximum stacksize for task 19: unlimited
  | Maximum stacksize for task 20: unlimited
  | Maximum stacksize for task 21: unlimited
  | Maximum stacksize for task 22: unlimited
  | Maximum stacksize for task 23: unlimited
  | Current stacksize for task 0: unlimited
  | Current stacksize for task 1: unlimited
  | Current stacksize for task 2: unlimited
  | Current stacksize for task 3: unlimited
  | Current stacksize for task 4: unlimited
  | Current stacksize for task 5: unlimited
  | Current stacksize for task 6: unlimited
  | Current stacksize for task 7: unlimited
  | Current stacksize for task 8: unlimited
  | Current stacksize for task 9: unlimited
  | Current stacksize for task 10: unlimited
  | Current stacksize for task 11: unlimited
  | Current stacksize for task 12: unlimited
  | Current stacksize for task 13: unlimited
  | Current stacksize for task 14: unlimited
  | Current stacksize for task 15: unlimited
  | Current stacksize for task 16: unlimited
  | Current stacksize for task 17: unlimited
  | Current stacksize for task 18: unlimited
  | Current stacksize for task 19: unlimited
  | Current stacksize for task 20: unlimited
  | Current stacksize for task 21: unlimited
  | Current stacksize for task 22: unlimited
  | Current stacksize for task 23: unlimited
 
  Consistency checks for the contents of control.in are next.
 
  MPI_IN_PLACE appears to work with this MPI implementation.
  | Keeping use_mpi_in_place .true. (see manual).
  Target number of points in a grid batch is not set. Defaulting to  100
  Method for grid partitioning is not set. Defaulting to parallel hash+maxmin partitioning.
  Batch size limit is not set. Defaulting to    200
  By default, will store active basis functions for each batch.
  If in need of memory, prune_basis_once .false. can be used to disable this option.
  communication_type for Hartree potential was not specified.
  Defaulting to calc_hartree .
  Pulay mixer: Number of initial linear mixing iterations not set.
  Defaulting to    0 iterations.
  Work space size for distributed Hartree potential not set.
  Defaulting to   0.200000E+03 MB.
  Algorithm-dependent basis array size parameters:
  | n_max_pulay                         :       10
  Presetting      1001 iterations before the initial mixing cycle
  is restarted anyway using the sc_init_iter criterion / keyword.
  Presetting a factor      1.000 between actual scf density residual
  and density convergence criterion sc_accuracy_rho below which sc_init_iter
  takes no effect.
  Geometry relaxation not requested: no relaxation will be performed.
  Forces evaluation will include force correction term due to incomplete self-consistency (default).
  Handling of forces: Unphysical translation and rotation will be removed from forces.
  No accuracy limit for integral partition fn. given. Defaulting to  0.1000E-14.
  No threshold value for u(r) in integrations given. Defaulting to  0.1000E-05.
  No accuracy for occupation numbers given. Defaulting to  0.1000E-12.
  No threshold value for occupation numbers given. Defaulting to  0.0000E+00.
  No accuracy for fermi level given. Defaulting to  0.1000E-19.
  Maximum # of iterations to find E_F not set. Defaulting to  200.
  Preferred method for the eigenvalue solver ('KS_method') not specified in 'control.in'.
  Calling BLACS routine to test compilation state
  Since ScaLAPACK support is enabled, defaulting to ELPA (via ELSI).
  Will not use alltoall communication since running on < 1024 CPUs.
  Threshold for basis singularities not set.
  Default threshold for basis singularities:  0.1000E-04
  partition_type (choice of integration weights) for integrals was not specified.
  | Using a version of the partition function of Stratmann and coworkers ('stratmann_sparse').
  | At each grid point, the set of atoms used to build the partition table is smoothly restricted to
  | only those atoms whose free-atom density would be non-zero at that grid point.
  Partitioning for Hartree potential was not defined. Using partition_type for integrals.
  | Adjusted default value of keyword multip_moments_threshold to:       0.10000000E-11
  | This value may affect high angular momentum components of the Hartree potential in periodic systems.
  No q(lm)/r^(l+1) cutoff set for long-range Hartree potential.
  | Using default value of  0.100000E-09 .
  | Verify using the multipole_threshold keyword.
  Defaulting to new monopole extrapolation.
  Density update method: automatic selection selected.
  Charge integration errors on the 3D integration grid will be compensated
  by explicit normalization and distribution of residual charges.
  Use the "compensate_multipole_errors" flag to change this behaviour.
  Set 'collect_eigenvectors' to be '.true.' for use_density_matrix .false.
 
  Consistency checks for the contents of geometry.in are next.
 
  Number of empty states per atom not set in control.in - providing a guess from actual geometry.
  | Total number of empty states used during s.c.f. cycle:       36
  If you use a very high smearing, use empty_states (per atom!) in control.in to increase this value.

  Structure-dependent array size parameters: 
  | Maximum number of distinct radial functions  :       14
  | Maximum number of basis functions            :      180
  | Number of Kohn-Sham states (occupied + empty):       96
------------------------------------------------------------

------------------------------------------------------------
          Preparing all fixed parts of the calculation.
------------------------------------------------------------
  Determining machine precision:
    2.225073858507201E-308
  Setting up grids for atomic and cluster calculations.

  Creating wave function, potential, and density for free atoms.

  Species: Al

  List of occupied orbitals and eigenvalues:
    n    l              occ      energy [Ha]    energy [eV]
    1    0           2.0000       -55.621123     -1513.5278
    2    0           2.0000        -3.957030      -107.6763
    3    0           2.0000        -0.272233        -7.4078
    2    1           6.0000        -2.540949       -69.1427
    3    1           1.0000        -0.083300        -2.2667


  Species: F

  List of occupied orbitals and eigenvalues:
    n    l              occ      energy [Ha]    energy [eV]
    1    0           2.0000       -24.399611      -663.9472
    2    0           2.0000        -1.098702       -29.8972
    2    1           5.0000        -0.408210       -11.1080


  Adding cutoff potential to free-atom effective potential.
  Creating fixed part of basis set: Ionic, confined, hydrogenic.
 
  Al                   ion:

  List of free ionic orbitals and eigenvalues:
    n    l      energy [Ha]    energy [eV]
    1    0       -56.418846     -1535.2349
    2    0        -4.732717      -128.7838
    3    0        -0.872690       -23.7471
    2    1        -3.317230       -90.2664


  List of ionic basis orbitals and eigenvalues:
    n    l      energy [Ha]    energy [eV]    outer radius [A]
    3    2        -0.346815        -9.4373       4.594041
    3    1        -0.631870       -17.1940       4.538221
    3    0        -0.872657       -23.7462       4.538221

 
  F                    hydrogenic:
 
  List of hydrogenic basis orbitals: 
    n    l      effective z      eigenvalue [eV]  inner max. [A]     outer max. [A]     outer radius [A]   
    2    1         1.700000        -9.7616           1.243167           1.243167           4.598524
    3    2         7.400000       -82.7828           0.642437           0.642437           3.305741
    3    0         6.800000       -69.9026           0.057798           1.022307           3.781556
 
  Creating atomic-like basis functions for current effective potential.

  Species Al                  :

  List of atomic basis orbitals and eigenvalues:
    n    l      energy [Ha]    energy [eV]    outer radius [A]
    1    0       -55.621123     -1513.5278       0.850197
    2    0        -3.957030      -107.6763       3.144911
    3    0        -0.272233        -7.4078       4.594041
    2    1        -2.540949       -69.1427       3.731966
    3    1        -0.083300        -2.2667       4.594041


  Species F                   :

  List of atomic basis orbitals and eigenvalues:
    n    l      energy [Ha]    energy [eV]    outer radius [A]
    1    0       -24.399611      -663.9472       1.258458
    2    0        -1.098702       -29.8972       4.325857
    2    1        -0.408210       -11.1080       4.487453

  Assembling full basis from fixed parts.
  | Species Al :   atomic orbital   1 s accepted.
  | Species Al :   atomic orbital   2 s accepted.
  | Species Al :    ionic orbital   3 s accepted.
  | Species Al :   atomic orbital   3 s accepted.
  | Species Al :   atomic orbital   2 p accepted.
  | Species Al :    ionic orbital   3 p accepted.
  | Species Al :   atomic orbital   3 p accepted.
  | Species Al :    ionic orbital   3 d accepted.
  | Species F :   atomic orbital   1 s accepted.
  | Species F :    hydro orbital   3 s accepted.
  | Species F :   atomic orbital   2 s accepted.
  | Species F :   atomic orbital   2 p accepted.
  | Species F :    hydro orbital   2 p accepted.
  | Species F :    hydro orbital   3 d accepted.
 
  Basis size parameters after reduction:
  | Total number of radial functions:       14
  | Total number of basis functions :      180
 
  Per-task memory consumption for arrays in subroutine allocate_ext:
  |           4.807768MB.
  Testing on-site integration grid accuracy.
  |  Species  Function  <phi|h_atom|phi> (log., in eV)  <phi|h_atom|phi> (rad., in eV)
           1        1              -1513.5277717935              -1513.5271881332
           1        2               -107.6762691836               -107.6762662489
           1        3                 -6.9467474784                 -6.9471269649
           1        4                  5.5771951849                  5.4862107220 ***
           1        5                -69.1427313144                -69.1427312731
           1        6                 -1.5197375330                 -1.5230432022
           1        7                  6.8210948310                  6.5529872240 ***
           1        8                  4.3216540965                  4.2851170187 ***
           2        9               -663.9471986398               -663.9470363334
           2       10                 16.8514011578                 16.8512525338
           2       11                -28.4490593856                -28.4490661472
           2       12                -11.1080115307                -11.1080620173
           2       13                  7.1940182175                  7.1685154137
           2       14                 44.8544281765                 44.8543763625
 * Note: Onsite integrals marked "***" above are less accurate than
 * onsite_accuracy_threshold =    0.03000 eV. Usually, this is harmless.
 * When in doubt, tighten the "radial" and/or "radial_multiplier" flags to check.

  Preparing densities etc. for the partition functions (integrals / Hartree potential).

  Preparations completed.
  max(cpu_time)          :      0.184 s.
  Wall clock time (cpu1) :      0.184 s.
------------------------------------------------------------

------------------------------------------------------------
          Begin self-consistency loop: Initialization.

          Date     :  20220517, Time     :  111026.731
------------------------------------------------------------

  Initializing index lists of integration centers etc. from given atomic structure:
  | Number of centers in hartree potential         :        12
  | Number of centers in hartree multipole         :        12
  | Number of centers in electron density summation:        12
  | Number of centers in basis integrals           :        12
  | Number of centers in integrals                 :        12
  | Number of centers in hamiltonian               :        12
  * Using 24 tasks for Scalapack Eigenvalue solver.
  Detailed listing of tasks and assigned k-points:
  (for non-periodic systems, the "k-point" denotes an internal label only)
   Task     0 k-point     1 on node-k98a-025
   Task     1 k-point     1 on node-k98a-025
   Task     2 k-point     1 on node-k98a-025
   Task     3 k-point     1 on node-k98a-025
   Task     4 k-point     1 on node-k98a-025
   Task     5 k-point     1 on node-k98a-025
   Task     6 k-point     1 on node-k98a-025
   Task     7 k-point     1 on node-k98a-025
   Task     8 k-point     1 on node-k98a-025
   Task     9 k-point     1 on node-k98a-025
   Task    10 k-point     1 on node-k98a-025
   Task    11 k-point     1 on node-k98a-025
   Task    12 k-point     1 on node-k98a-025
   Task    13 k-point     1 on node-k98a-025
   Task    14 k-point     1 on node-k98a-025
   Task    15 k-point     1 on node-k98a-025
   Task    16 k-point     1 on node-k98a-025
   Task    17 k-point     1 on node-k98a-025
   Task    18 k-point     1 on node-k98a-025
   Task    19 k-point     1 on node-k98a-025
   Task    20 k-point     1 on node-k98a-025
   Task    21 k-point     1 on node-k98a-025
   Task    22 k-point     1 on node-k98a-025
   Task    23 k-point     1 on node-k98a-025
  Tasks:    24 split into      6 X      4 BLACS grid
  Calculating block size based on n_basis =          180  max_nprow =            6  max_npcol =            4
  ScaLAPACK block size set to:           16
  Allocating        0.012 MB for ovlp
  Allocating        0.012 MB for ham
  Allocating        0.012 MB for eigenvec
  Required Scalapack workspace - INTEGER:            1  REAL:             1
  Partitioning the integration grid into batches with parallel hashing+maxmin method.
  | Number of batches:     1072
  | Maximal batch size:     195
  | Minimal batch size:      26
  | Average batch size:      85.746
  | Standard deviation of batch sizes:      26.216

  Integration load balanced across    24 MPI tasks.
  Work distribution over tasks is as follows:
  Task     0 has       3816 integration points.
  Task     1 has       3753 integration points.
  Task     2 has       3820 integration points.
  Task     3 has       3824 integration points.
  Task     4 has       3826 integration points.
  Task     5 has       3837 integration points.
  Task     6 has       3861 integration points.
  Task     7 has       3764 integration points.
  Task     8 has       3820 integration points.
  Task     9 has       3826 integration points.
  Task    10 has       3832 integration points.
  Task    11 has       3816 integration points.
  Task    12 has       3829 integration points.
  Task    13 has       3867 integration points.
  Task    14 has       3837 integration points.
  Task    15 has       3841 integration points.
  Task    16 has       3754 integration points.
  Task    17 has       3808 integration points.
  Task    18 has       3797 integration points.
  Task    19 has       3913 integration points.
  Task    20 has       3821 integration points.
  Task    21 has       3922 integration points.
  Task    22 has       3928 integration points.
  Task    23 has       3808 integration points.
  Initializing partition tables, free-atom densities, potentials, etc. across the integration grid (initialize_grid_storage).
  | initialize_grid_storage: Actual outermost partition radius vs. multipole_radius_free
  | (-- VB: in principle, multipole_radius_free should be larger, hence this output)
  | Species        1: Confinement radius =              4.999999999999999 AA, multipole_radius_free =              5.004487022111096 AA.
  | Species        1: outer_partition_radius set to              5.004487022111096 AA .
  | Species        2: Confinement radius =              4.999999999999999 AA, multipole_radius_free =              5.009370088163274 AA.
  | Species        2: outer_partition_radius set to              5.009370088163274 AA .
  | The sparse table of interatomic distances needs          1.64 kbyte instead of         1.15 kbyte of memory.
  | Using the partition_type stratmann_smoother will reduce your memory usage.
  | Net number of integration points:    91920
  | of which are non-zero points    :    85917
  Renormalizing the initial density to the exact electron count on the 3D integration grid.
  | Initial density: Formal number of electrons (from input files) :     120.0000000000
  | Integrated number of electrons on 3D grid     :     119.9999177293
  | Charge integration error                      :      -0.0000822707
  | Normalization factor for density and gradient :       1.0000006856
  Renormalizing the free-atom superposition density to the exact electron count on the 3D integration grid.
  | Formal number of electrons (from input files) :     120.0000000000
  | Integrated number of electrons on 3D grid     :     119.9999177293
  | Charge integration error                      :      -0.0000822707
  | Normalization factor for density and gradient :       1.0000006856
  Obtaining max. number of non-zero basis functions in each batch (get_n_compute_maxes).
  | Maximal number of non-zero basis functions:      160 in task     0
  | Maximal number of non-zero basis functions:      165 in task     1
  | Maximal number of non-zero basis functions:      159 in task     2
  | Maximal number of non-zero basis functions:      166 in task     3
  | Maximal number of non-zero basis functions:      161 in task     4
  | Maximal number of non-zero basis functions:      166 in task     5
  | Maximal number of non-zero basis functions:      160 in task     6
  | Maximal number of non-zero basis functions:      164 in task     7
  | Maximal number of non-zero basis functions:      163 in task     8
  | Maximal number of non-zero basis functions:      160 in task     9
  | Maximal number of non-zero basis functions:      163 in task    10
  | Maximal number of non-zero basis functions:      160 in task    11
  | Maximal number of non-zero basis functions:      165 in task    12
  | Maximal number of non-zero basis functions:      158 in task    13
  | Maximal number of non-zero basis functions:      156 in task    14
  | Maximal number of non-zero basis functions:      159 in task    15
  | Maximal number of non-zero basis functions:      164 in task    16
  | Maximal number of non-zero basis functions:      159 in task    17
  | Maximal number of non-zero basis functions:      160 in task    18
  | Maximal number of non-zero basis functions:      164 in task    19
  | Maximal number of non-zero basis functions:      156 in task    20
  | Maximal number of non-zero basis functions:      163 in task    21
  | Maximal number of non-zero basis functions:      158 in task    22
  | Maximal number of non-zero basis functions:      165 in task    23
  Selecting the method for density update.
  Loop over occupied states selected for charge density update.
  Allocating        0.132 MB for KS_eigenvector
  Integrating Hamiltonian matrix: batch-based integration.
  Time summed over all CPUs for integration: real work        0.686 s, elapsed        0.718 s
  Integrating overlap matrix.
  Time summed over all CPUs for integration: real work        0.262 s, elapsed        0.283 s
  Deallocating overlap matrix.

  Updating Kohn-Sham eigenvalues and eigenvectors using ELSI and the ELPA eigensolver.
  Overlap matrix is not singular
  | Lowest and highest eigenvalues :  0.4256E-02,  0.4848E+01
  Finished singularity check of overlap matrix
  | Time :     0.004 s
  Starting ELPA eigensolver
  Finished Cholesky decomposition
  | Time :     0.002 s
  Finished transformation to standard eigenproblem
  | Time :     0.000 s
  Finished solving standard eigenproblem
  | Time :     0.004 s
  Finished back-transformation of eigenvectors
  | Time :     0.000 s

  Obtaining occupation numbers and chemical potential using ELSI.
  | Chemical potential (Fermi level):    -8.06637680 eV
  Writing Kohn-Sham eigenvalues.

  State    Occupation    Eigenvalue [Ha]    Eigenvalue [eV]
      1       2.00000         -55.484480        -1509.80953
      2       2.00000         -55.482671        -1509.76031
      3       2.00000         -55.482671        -1509.76031
      4       2.00000         -24.357059         -662.78930
      5       2.00000         -24.357059         -662.78930
      6       2.00000         -24.353025         -662.67952
      7       2.00000         -24.353025         -662.67951
      8       2.00000         -24.336680         -662.23477
      9       2.00000         -24.333313         -662.14313
     10       2.00000         -24.333313         -662.14313
     11       2.00000         -24.332794         -662.12902
     12       2.00000         -24.332794         -662.12902
     13       2.00000          -3.949632         -107.47495
     14       2.00000          -3.947068         -107.40518
     15       2.00000          -3.947068         -107.40517
     16       2.00000          -2.542172          -69.17602
     17       2.00000          -2.541510          -69.15800
     18       2.00000          -2.540703          -69.13606
     19       2.00000          -2.539435          -69.10154
     20       2.00000          -2.539431          -69.10145
     21       2.00000          -2.538888          -69.08665
     22       2.00000          -2.538887          -69.08664
     23       2.00000          -2.538139          -69.06629
     24       2.00000          -2.538138          -69.06624
     25       2.00000          -1.186742          -32.29290
     26       2.00000          -1.175937          -31.99888
     27       2.00000          -1.174526          -31.96049
     28       2.00000          -1.157451          -31.49584
     29       2.00000          -1.143470          -31.11540
     30       2.00000          -1.139177          -30.99858
     31       2.00000          -1.139120          -30.99703
     32       2.00000          -1.137177          -30.94416
     33       2.00000          -1.137176          -30.94412
     34       2.00000          -0.554390          -15.08572
     35       2.00000          -0.545381          -14.84056
     36       2.00000          -0.529872          -14.41856
     37       2.00000          -0.529443          -14.40688
     38       2.00000          -0.513363          -13.96932
     39       2.00000          -0.499556          -13.59362
     40       2.00000          -0.485873          -13.22128
     41       2.00000          -0.485435          -13.20937
     42       2.00000          -0.482808          -13.13788
     43       2.00000          -0.481737          -13.10873
     44       2.00000          -0.477609          -12.99639
     45       2.00000          -0.476271          -12.95999
     46       2.00000          -0.471581          -12.83238
     47       2.00000          -0.467726          -12.72747
     48       2.00000          -0.467642          -12.72518
     49       2.00000          -0.466202          -12.68600
     50       2.00000          -0.450634          -12.26238
     51       2.00000          -0.447361          -12.17330
     52       2.00000          -0.445265          -12.11627
     53       2.00000          -0.445031          -12.10992
     54       2.00000          -0.444252          -12.08870
     55       2.00000          -0.442942          -12.05306
     56       2.00000          -0.441518          -12.01432
     57       2.00000          -0.439572          -11.96138
     58       2.00000          -0.438784          -11.93993
     59       2.00000          -0.438769          -11.93952
     60       2.00000          -0.437884          -11.91543
     61       0.00000          -0.151738           -4.12901
     62       0.00000          -0.131866           -3.58825
     63       0.00000          -0.093231           -2.53693
     64       0.00000          -0.034534           -0.93971
     65       0.00000          -0.019042           -0.51816
     66       0.00000           0.000277            0.00753
     67       0.00000           0.014111            0.38397
     68       0.00000           0.020580            0.56001
     69       0.00000           0.028739            0.78204
     70       0.00000           0.060611            1.64932
     71       0.00000           0.071436            1.94388
     72       0.00000           0.102118            2.77877
     73       0.00000           0.141713            3.85621
     74       0.00000           0.156065            4.24676
     75       0.00000           0.165830            4.51246
     76       0.00000           0.170478            4.63894
     77       0.00000           0.181551            4.94025
     78       0.00000           0.184652            5.02462
     79       0.00000           0.192855            5.24786
     80       0.00000           0.199849            5.43818
     81       0.00000           0.200465            5.45493
     82       0.00000           0.217946            5.93061
     83       0.00000           0.224825            6.11779
     84       0.00000           0.234767            6.38835
     85       0.00000           0.241574            6.57357
     86       0.00000           0.245000            6.66678
     87       0.00000           0.266359            7.24800
     88       0.00000           0.272125            7.40489
     89       0.00000           0.273650            7.44640
     90       0.00000           0.287097            7.81230
     91       0.00000           0.299498            8.14976
     92       0.00000           0.301979            8.21727
     93       0.00000           0.329649            8.97020
     94       0.00000           0.334279            9.09619
     95       0.00000           0.356303            9.69549
     96       0.00000           0.357970            9.74085

  Highest occupied state (VBM) at    -11.91543367 eV
  | Occupation number:      2.00000000

  Lowest unoccupied state (CBM) at    -4.12901213 eV
  | Occupation number:      0.00000000

  Overall HOMO-LUMO gap:      7.78642153 eV.
  Calculating total energy contributions from superposition of free atom densities.

  Total energy components:
  | Sum of eigenvalues            :        -886.87526533 Ha      -24133.10384849 eV
  | XC energy correction          :        -144.25952905 Ha       -3925.50151286 eV
  | XC potential correction       :         187.83004401 Ha        5111.11554816 eV
  | Free-atom electrostatic energy:        -782.00597366 Ha      -21279.46523052 eV
  | Hartree energy correction     :           0.00000000 Ha           0.00000000 eV
  | Entropy correction            :           0.00000000 Ha           0.00000000 eV
  | ---------------------------
  | Total energy                  :       -1625.31072404 Ha      -44226.95504372 eV
  | Total energy, T -> 0          :       -1625.31072404 Ha      -44226.95504372 eV  <-- do not rely on this value for anything but (periodic) metals
  | Electronic free energy        :       -1625.31072404 Ha      -44226.95504372 eV

  Derived energy quantities:
  | Kinetic energy                :        1627.45705315 Ha       44285.35963053 eV
  | Electrostatic energy          :       -3108.50824813 Ha      -84586.81316138 eV
  | Energy correction for multipole
  | error in Hartree potential    :           0.00000000 Ha           0.00000000 eV
  | Sum of eigenvalues per atom                           :       -2011.09198737 eV
  | Total energy (T->0) per atom                          :       -3685.57958698 eV  <-- do not rely on this value for anything but (periodic) metals
  | Electronic free energy per atom                       :       -3685.57958698 eV
  Initialize hartree_potential_storage
  Max. number of atoms included in rho_multipole:           12

  End scf initialization - timings             :  max(cpu_time)    wall_clock(cpu1)
  | Time for scf. initialization                :        0.107 s           0.108 s
  | Boundary condition initialization           :        0.000 s           0.001 s
  | Integration                                 :        0.043 s           0.043 s
  | Solution of K.-S. eqns.                     :        0.011 s           0.011 s
  | Grid partitioning                           :        0.032 s           0.032 s
  | Preloading free-atom quantities on grid     :        0.014 s           0.014 s
  | Free-atom superposition energy              :        0.005 s           0.005 s
  | Total energy evaluation                     :        0.000 s           0.000 s

  Partial memory accounting:
  | Current value for overall tracked memory usage:
  |   Minimum:        0.273 MB (on task 23)
  |   Maximum:        0.292 MB (on task  0)
  |   Average:        0.287 MB
  | Peak value for overall tracked memory usage:
  |   Minimum:        1.288 MB (on task 20 after allocating wave)
  |   Maximum:        1.371 MB (on task  5 after allocating wave)
  |   Average:        1.335 MB
  | Largest tracked array allocation so far:
  |   Minimum:        0.232 MB (H_times_psi on task 20)
  |   Maximum:        0.410 MB (all_coords on task 13)
  |   Average:        0.264 MB
  Note:  These values currently only include a subset of arrays which are explicitly tracked.
  The "true" memory usage will be greater.
------------------------------------------------------------
  Evaluating new KS density.
  Integration grid: deviation in total charge (<rho> - N_e) =   4.263256E-14

  Time for density update prior                :  max(cpu_time)    wall_clock(cpu1)
  | self-consistency iterative process          :        0.027 s           0.027 s

------------------------------------------------------------
          Begin self-consistency iteration #    1

  Date     :  20220517, Time     :  111026.867
------------------------------------------------------------
  Pulay mixing of updated and previous charge densities.
  Renormalizing the density to the exact electron count on the 3D integration grid.
  | Formal number of electrons (from input files) :     120.0000000000
  | Integrated number of electrons on 3D grid     :     120.0000000000
  | Charge integration error                      :       0.0000000000
  | Normalization factor for density and gradient :       1.0000000000

  Evaluating partitioned Hartree potential by multipole expansion.
  | Original multipole sum: apparent total charge =   0.855755E-13
  | Sum of charges compensated after spline to logarithmic grids =   0.183377E-03
  | Analytical far-field extrapolation by fixed multipoles:
  | Hartree multipole sum: apparent total charge =   0.846900E-13
  Summing up the Hartree potential.
  Time summed over all CPUs for potential: real work        0.381 s, elapsed        0.405 s
  | RMS charge density error from multipole expansion :   0.104941E-01

  Integrating Hamiltonian matrix: batch-based integration.
  Time summed over all CPUs for integration: real work        0.634 s, elapsed        0.672 s

  Updating Kohn-Sham eigenvalues and eigenvectors using ELSI and the ELPA eigensolver.
  Starting ELPA eigensolver
  Finished transformation to standard eigenproblem
  | Time :     0.000 s
  Finished solving standard eigenproblem
  | Time :     0.003 s
  Finished back-transformation of eigenvectors
  | Time :     0.000 s

  Obtaining occupation numbers and chemical potential using ELSI.
  | Chemical potential (Fermi level):    -7.73545171 eV
  Writing Kohn-Sham eigenvalues.

  State    Occupation    Eigenvalue [Ha]    Eigenvalue [eV]
      1       2.00000         -55.663892        -1514.69158
      2       2.00000         -55.659214        -1514.56427
      3       2.00000         -55.659212        -1514.56423
      4       2.00000         -24.215177         -658.92850
      5       2.00000         -24.215174         -658.92841
      6       2.00000         -24.209482         -658.77352
      7       2.00000         -24.209480         -658.77347
      8       2.00000         -24.060775         -654.72700
      9       2.00000         -24.054538         -654.55728
     10       2.00000         -24.054535         -654.55721
     11       2.00000         -24.053134         -654.51907
     12       2.00000         -24.053127         -654.51889
     13       2.00000          -4.101342         -111.60319
     14       2.00000          -4.094924         -111.42855
     15       2.00000          -4.094921         -111.42848
     16       2.00000          -2.695239          -73.34118
     17       2.00000          -2.694217          -73.31338
     18       2.00000          -2.692679          -73.27152
     19       2.00000          -2.689246          -73.17811
     20       2.00000          -2.689243          -73.17801
     21       2.00000          -2.687137          -73.12071
     22       2.00000          -2.687133          -73.12061
     23       2.00000          -2.686389          -73.10036
     24       2.00000          -2.686387          -73.10031
     25       2.00000          -1.150231          -31.29937
     26       2.00000          -1.135172          -30.88960
     27       2.00000          -1.132410          -30.81445
     28       2.00000          -1.116795          -30.38954
     29       2.00000          -1.007086          -27.40420
     30       2.00000          -1.000223          -27.21746
     31       2.00000          -1.000190          -27.21657
     32       2.00000          -0.996173          -27.10726
     33       2.00000          -0.996170          -27.10716
     34       2.00000          -0.536288          -14.59315
     35       2.00000          -0.526980          -14.33985
     36       2.00000          -0.504478          -13.72754
     37       2.00000          -0.500444          -13.61778
     38       2.00000          -0.477242          -12.98640
     39       2.00000          -0.459738          -12.51011
     40       2.00000          -0.445248          -12.11582
     41       2.00000          -0.436927          -11.88938
     42       2.00000          -0.432915          -11.78022
     43       2.00000          -0.432263          -11.76248
     44       2.00000          -0.423408          -11.52153
     45       2.00000          -0.407850          -11.09816
     46       2.00000          -0.385289          -10.48426
     47       2.00000          -0.377308          -10.26709
     48       2.00000          -0.367663          -10.00461
     49       2.00000          -0.350074           -9.52599
     50       2.00000          -0.349606           -9.51327
     51       2.00000          -0.319400           -8.69131
     52       2.00000          -0.319369           -8.69046
     53       2.00000          -0.316521           -8.61297
     54       2.00000          -0.316366           -8.60875
     55       2.00000          -0.312785           -8.51132
     56       2.00000          -0.312580           -8.50574
     57       2.00000          -0.305250           -8.30627
     58       2.00000          -0.304996           -8.29936
     59       2.00000          -0.302422           -8.22932
     60       2.00000          -0.301993           -8.21764
     61       0.00000          -0.166969           -4.54346
     62       0.00000          -0.146695           -3.99177
     63       0.00000          -0.116117           -3.15971
     64       0.00000          -0.054276           -1.47693
     65       0.00000          -0.035978           -0.97902
     66       0.00000          -0.010653           -0.28988
     67       0.00000          -0.000314           -0.00854
     68       0.00000           0.008772            0.23870
     69       0.00000           0.027397            0.74552
     70       0.00000           0.030715            0.83579
     71       0.00000           0.062009            1.68735
     72       0.00000           0.080306            2.18523
     73       0.00000           0.137191            3.73315
     74       0.00000           0.146785            3.99422
     75       0.00000           0.158499            4.31299
     76       0.00000           0.158929            4.32468
     77       0.00000           0.167037            4.54530
     78       0.00000           0.188998            5.14291
     79       0.00000           0.190290            5.17805
     80       0.00000           0.197273            5.36806
     81       0.00000           0.203660            5.54187
     82       0.00000           0.203912            5.54874
     83       0.00000           0.218191            5.93729
     84       0.00000           0.222470            6.05371
     85       0.00000           0.229811            6.25349
     86       0.00000           0.236261            6.42900
     87       0.00000           0.250513            6.81681
     88       0.00000           0.256139            6.96991
     89       0.00000           0.262110            7.13237
     90       0.00000           0.268375            7.30287
     91       0.00000           0.298775            8.13007
     92       0.00000           0.301731            8.21052
     93       0.00000           0.316053            8.60025
     94       0.00000           0.346319            9.42381
     95       0.00000           0.355035            9.66100
     96       0.00000           0.372403           10.13359

  Highest occupied state (VBM) at     -8.21763774 eV
  | Occupation number:      2.00000000

  Lowest unoccupied state (CBM) at    -4.54345970 eV
  | Occupation number:      0.00000000

  Overall HOMO-LUMO gap:      3.67417804 eV.

  Total energy components:
  | Sum of eigenvalues            :        -881.33290257 Ha      -23982.28848446 eV
  | XC energy correction          :        -145.61075396 Ha       -3962.27021323 eV
  | XC potential correction       :         189.60668590 Ha        5159.46043373 eV
  | Free-atom electrostatic energy:        -782.00597366 Ha      -21279.46523052 eV
  | Hartree energy correction     :          -5.73905092 Ha        -156.16752116 eV
  | Entropy correction            :           0.00000000 Ha           0.00000000 eV
  | ---------------------------
  | Total energy                  :       -1625.08199521 Ha      -44220.73101564 eV
  | Total energy, T -> 0          :       -1625.08199521 Ha      -44220.73101564 eV  <-- do not rely on this value for anything but (periodic) metals
  | Electronic free energy        :       -1625.08199521 Ha      -44220.73101564 eV

  Derived energy quantities:
  | Kinetic energy                :        1633.80535552 Ha       44458.10572709 eV
  | Electrostatic energy          :       -3113.27659677 Ha      -84716.56652950 eV
  | Energy correction for multipole
  | error in Hartree potential    :           0.03605005 Ha           0.98097174 eV
  | Sum of eigenvalues per atom                           :       -1998.52404037 eV
  | Total energy (T->0) per atom                          :       -3685.06091797 eV  <-- do not rely on this value for anything but (periodic) metals
  | Electronic free energy per atom                       :       -3685.06091797 eV
  Evaluating new KS density.
  Integration grid: deviation in total charge (<rho> - N_e) =   0.000000E+00

  Self-consistency convergence accuracy:
  | Change of charge density      :  0.6103E+00
  | Change of sum of eigenvalues  :  0.1508E+03 eV
  | Change of total energy        :  0.6224E+01 eV


------------------------------------------------------------
  End self-consistency iteration #     1       :  max(cpu_time)    wall_clock(cpu1)
  | Time for this iteration                     :        0.079 s           0.078 s
  | Charge density update                       :        0.026 s           0.026 s
  | Density mixing                              :        0.000 s           0.000 s
  | Hartree multipole update                    :        0.001 s           0.002 s
  | Hartree multipole summation                 :        0.017 s           0.017 s
  | Integration                                 :        0.028 s           0.028 s
  | Solution of K.-S. eqns.                     :        0.004 s           0.005 s
  | Total energy evaluation                     :        0.000 s           0.000 s

  Partial memory accounting:
  | Current value for overall tracked memory usage:
  |   Minimum:        0.273 MB (on task 23)
  |   Maximum:        0.292 MB (on task  0)
  |   Average:        0.287 MB
  | Peak value for overall tracked memory usage:
  |   Minimum:        1.288 MB (on task 20 after allocating wave)
  |   Maximum:        1.371 MB (on task  5 after allocating wave)
  |   Average:        1.335 MB
  | Largest tracked array allocation so far:
  |   Minimum:        0.696 MB (gradient_basis_wave on task 14)
  |   Maximum:        0.741 MB (gradient_basis_wave on task  3)
  |   Average:        0.720 MB
  Note:  These values currently only include a subset of arrays which are explicitly tracked.
  The "true" memory usage will be greater.
------------------------------------------------------------

------------------------------------------------------------
          Begin self-consistency iteration #    2

  Date     :  20220517, Time     :  111026.951
------------------------------------------------------------
  Pulay mixing of updated and previous charge densities.
  Renormalizing the density to the exact electron count on the 3D integration grid.
  | Formal number of electrons (from input files) :     120.0000000000
  | Integrated number of electrons on 3D grid     :     120.0000000000
  | Charge integration error                      :       0.0000000000
  | Normalization factor for density and gradient :       1.0000000000

  Evaluating partitioned Hartree potential by multipole expansion.
  | Original multipole sum: apparent total charge =   0.701528E-13
  | Sum of charges compensated after spline to logarithmic grids =   0.155243E-03
  | Analytical far-field extrapolation by fixed multipoles:
  | Hartree multipole sum: apparent total charge =   0.697100E-13
  Summing up the Hartree potential.
  Time summed over all CPUs for potential: real work        0.379 s, elapsed        0.403 s
  | RMS charge density error from multipole expansion :   0.119766E-01

  Integrating Hamiltonian matrix: batch-based integration.
  Time summed over all CPUs for integration: real work        0.634 s, elapsed        0.675 s

  Updating Kohn-Sham eigenvalues and eigenvectors using ELSI and the ELPA eigensolver.
  Starting ELPA eigensolver
  Finished transformation to standard eigenproblem
  | Time :     0.001 s
  Finished solving standard eigenproblem
  | Time :     0.003 s
  Finished back-transformation of eigenvectors
  | Time :     0.000 s

  Obtaining occupation numbers and chemical potential using ELSI.
  | Chemical potential (Fermi level):    -8.02508393 eV
  Highest occupied state (VBM) at     -9.56512457 eV
  | Occupation number:      2.00000000

  Lowest unoccupied state (CBM) at    -4.79081010 eV
  | Occupation number:      0.00000000

  Overall HOMO-LUMO gap:      4.77431448 eV.

  Checking to see if s.c.f. parameters should be adjusted.

  Total energy components:
  | Sum of eigenvalues            :        -884.68799738 Ha      -24073.58525936 eV
  | XC energy correction          :        -145.07270873 Ha       -3947.62925769 eV
  | XC potential correction       :         188.89882809 Ha        5140.19864274 eV
  | Free-atom electrostatic energy:        -782.00597366 Ha      -21279.46523052 eV
  | Hartree energy correction     :          -2.13408412 Ha         -58.07138354 eV
  | Entropy correction            :           0.00000000 Ha           0.00000000 eV
  | ---------------------------
  | Total energy                  :       -1625.00193580 Ha      -44218.55248836 eV
  | Total energy, T -> 0          :       -1625.00193580 Ha      -44218.55248836 eV  <-- do not rely on this value for anything but (periodic) metals
  | Electronic free energy        :       -1625.00193580 Ha      -44218.55248836 eV

  Derived energy quantities:
  | Kinetic energy                :        1629.75276710 Ha       44347.82918545 eV
  | Electrostatic energy          :       -3109.68199417 Ha      -84618.75241612 eV
  | Energy correction for multipole
  | error in Hartree potential    :           0.03875787 Ha           1.05465542 eV
  | Sum of eigenvalues per atom                           :       -2006.13210495 eV
  | Total energy (T->0) per atom                          :       -3684.87937403 eV  <-- do not rely on this value for anything but (periodic) metals
  | Electronic free energy per atom                       :       -3684.87937403 eV
  Evaluating new KS density.
  Integration grid: deviation in total charge (<rho> - N_e) =   0.000000E+00

  Self-consistency convergence accuracy:
  | Change of charge density      :  0.5308E+00
  | Change of sum of eigenvalues  : -0.9130E+02 eV
  | Change of total energy        :  0.2179E+01 eV


------------------------------------------------------------
  End self-consistency iteration #     2       :  max(cpu_time)    wall_clock(cpu1)
  | Time for this iteration                     :        0.082 s           0.079 s
  | Charge density update                       :        0.026 s           0.026 s
  | Density mixing                              :        0.004 s           0.001 s
  | Hartree multipole update                    :        0.001 s           0.002 s
  | Hartree multipole summation                 :        0.017 s           0.017 s
  | Integration                                 :        0.029 s           0.028 s
  | Solution of K.-S. eqns.                     :        0.004 s           0.005 s
  | Total energy evaluation                     :        0.000 s           0.000 s

  Partial memory accounting:
  | Current value for overall tracked memory usage:
  |   Minimum:        0.274 MB (on task 23)
  |   Maximum:        0.293 MB (on task  0)
  |   Average:        0.288 MB
  | Peak value for overall tracked memory usage:
  |   Minimum:        1.288 MB (on task 20 after allocating wave)
  |   Maximum:        1.371 MB (on task  5 after allocating wave)
  |   Average:        1.335 MB
  | Largest tracked array allocation so far:
  |   Minimum:        0.696 MB (gradient_basis_wave on task 14)
  |   Maximum:        0.741 MB (gradient_basis_wave on task  3)
  |   Average:        0.720 MB
  Note:  These values currently only include a subset of arrays which are explicitly tracked.
  The "true" memory usage will be greater.
------------------------------------------------------------

------------------------------------------------------------
          Begin self-consistency iteration #    3

  Date     :  20220517, Time     :  111027.036
------------------------------------------------------------
  Pulay mixing of updated and previous charge densities.
  Renormalizing the density to the exact electron count on the 3D integration grid.
  | Formal number of electrons (from input files) :     120.0000000000
  | Integrated number of electrons on 3D grid     :     120.0000000000
  | Charge integration error                      :      -0.0000000000
  | Normalization factor for density and gradient :       1.0000000000

  Evaluating partitioned Hartree potential by multipole expansion.
  | Original multipole sum: apparent total charge =  -0.221380E-13
  | Sum of charges compensated after spline to logarithmic grids =   0.210667E-03
  | Analytical far-field extrapolation by fixed multipoles:
  | Hartree multipole sum: apparent total charge =  -0.210065E-13
  Summing up the Hartree potential.
  Time summed over all CPUs for potential: real work        0.379 s, elapsed        0.403 s
  | RMS charge density error from multipole expansion :   0.162857E-01

  Integrating Hamiltonian matrix: batch-based integration.
  Time summed over all CPUs for integration: real work        0.634 s, elapsed        0.675 s

  Updating Kohn-Sham eigenvalues and eigenvectors using ELSI and the ELPA eigensolver.
  Starting ELPA eigensolver
  Finished transformation to standard eigenproblem
  | Time :     0.000 s
  Finished solving standard eigenproblem
  | Time :     0.003 s
  Finished back-transformation of eigenvectors
  | Time :     0.000 s

  Obtaining occupation numbers and chemical potential using ELSI.
  | Chemical potential (Fermi level):    -8.05321557 eV
  Highest occupied state (VBM) at     -9.17258628 eV
  | Occupation number:      2.00000000

  Lowest unoccupied state (CBM) at    -4.97586486 eV
  | Occupation number:      0.00000000

  Overall HOMO-LUMO gap:      4.19672141 eV.

  Total energy components:
  | Sum of eigenvalues            :        -885.71623216 Ha      -24101.56495108 eV
  | XC energy correction          :        -145.03254334 Ha       -3946.53630180 eV
  | XC potential correction       :         188.84489754 Ha        5138.73111794 eV
  | Free-atom electrostatic energy:        -782.00597366 Ha      -21279.46523052 eV
  | Hartree energy correction     :          -1.09116969 Ha         -29.69223797 eV
  | Entropy correction            :           0.00000000 Ha           0.00000000 eV
  | ---------------------------
  | Total energy                  :       -1625.00102130 Ha      -44218.52760343 eV
  | Total energy, T -> 0          :       -1625.00102130 Ha      -44218.52760343 eV  <-- do not rely on this value for anything but (periodic) metals
  | Electronic free energy        :       -1625.00102130 Ha      -44218.52760343 eV

  Derived energy quantities:
  | Kinetic energy                :        1628.03842757 Ha       44301.17963334 eV
  | Electrostatic energy          :       -3108.00690553 Ha      -84573.17093497 eV
  | Energy correction for multipole
  | error in Hartree potential    :           0.05172640 Ha           1.40754698 eV
  | Sum of eigenvalues per atom                           :       -2008.46374592 eV
  | Total energy (T->0) per atom                          :       -3684.87730029 eV  <-- do not rely on this value for anything but (periodic) metals
  | Electronic free energy per atom                       :       -3684.87730029 eV
  Evaluating new KS density.
  Integration grid: deviation in total charge (<rho> - N_e) =  -2.842171E-14

  Self-consistency convergence accuracy:
  | Change of charge density      :  0.1353E+00
  | Change of sum of eigenvalues  : -0.2798E+02 eV
  | Change of total energy        :  0.2488E-01 eV


------------------------------------------------------------
  End self-consistency iteration #     3       :  max(cpu_time)    wall_clock(cpu1)
  | Time for this iteration                     :        0.081 s           0.079 s
  | Charge density update                       :        0.026 s           0.026 s
  | Density mixing                              :        0.004 s           0.002 s
  | Hartree multipole update                    :        0.001 s           0.001 s
  | Hartree multipole summation                 :        0.017 s           0.017 s
  | Integration                                 :        0.029 s           0.029 s
  | Solution of K.-S. eqns.                     :        0.004 s           0.004 s
  | Total energy evaluation                     :        0.000 s           0.000 s

  Partial memory accounting:
  | Current value for overall tracked memory usage:
  |   Minimum:        0.274 MB (on task 23)
  |   Maximum:        0.293 MB (on task  0)
  |   Average:        0.288 MB
  | Peak value for overall tracked memory usage:
  |   Minimum:        1.288 MB (on task 20 after allocating wave)
  |   Maximum:        1.371 MB (on task  5 after allocating wave)
  |   Average:        1.335 MB
  | Largest tracked array allocation so far:
  |   Minimum:        0.696 MB (gradient_basis_wave on task 14)
  |   Maximum:        0.741 MB (gradient_basis_wave on task  3)
  |   Average:        0.720 MB
  Note:  These values currently only include a subset of arrays which are explicitly tracked.
  The "true" memory usage will be greater.
------------------------------------------------------------

------------------------------------------------------------
          Begin self-consistency iteration #    4

  Date     :  20220517, Time     :  111027.121
------------------------------------------------------------
  Pulay mixing of updated and previous charge densities.
  Renormalizing the density to the exact electron count on the 3D integration grid.
  | Formal number of electrons (from input files) :     120.0000000000
  | Integrated number of electrons on 3D grid     :     120.0000000000
  | Charge integration error                      :      -0.0000000000
  | Normalization factor for density and gradient :       1.0000000000

  Evaluating partitioned Hartree potential by multipole expansion.
  | Original multipole sum: apparent total charge =  -0.602645E-13
  | Sum of charges compensated after spline to logarithmic grids =   0.236016E-03
  | Analytical far-field extrapolation by fixed multipoles:
  | Hartree multipole sum: apparent total charge =  -0.597725E-13
  Summing up the Hartree potential.
  Time summed over all CPUs for potential: real work        0.379 s, elapsed        0.403 s
  | RMS charge density error from multipole expansion :   0.184691E-01

  Integrating Hamiltonian matrix: batch-based integration.
  Time summed over all CPUs for integration: real work        0.634 s, elapsed        0.673 s

  Updating Kohn-Sham eigenvalues and eigenvectors using ELSI and the ELPA eigensolver.
  Starting ELPA eigensolver
  Finished transformation to standard eigenproblem
  | Time :     0.000 s
  Finished solving standard eigenproblem
  | Time :     0.003 s
  Finished back-transformation of eigenvectors
  | Time :     0.000 s

  Obtaining occupation numbers and chemical potential using ELSI.
  | Chemical potential (Fermi level):    -8.05596829 eV
  Highest occupied state (VBM) at     -9.33792673 eV
  | Occupation number:      2.00000000

  Lowest unoccupied state (CBM) at    -4.95032382 eV
  | Occupation number:      0.00000000

  Overall HOMO-LUMO gap:      4.38760291 eV.

  Total energy components:
  | Sum of eigenvalues            :        -885.90468445 Ha      -24106.69299895 eV
  | XC energy correction          :        -145.00917886 Ha       -3945.90052189 eV
  | XC potential correction       :         188.81342852 Ha        5137.87480236 eV
  | Free-atom electrostatic energy:        -782.00597366 Ha      -21279.46523052 eV
  | Hartree energy correction     :          -0.89152885 Ha         -24.25973445 eV
  | Entropy correction            :           0.00000000 Ha           0.00000000 eV
  | ---------------------------
  | Total energy                  :       -1624.99793730 Ha      -44218.44368345 eV
  | Total energy, T -> 0          :       -1624.99793730 Ha      -44218.44368345 eV  <-- do not rely on this value for anything but (periodic) metals
  | Electronic free energy        :       -1624.99793730 Ha      -44218.44368345 eV

  Derived energy quantities:
  | Kinetic energy                :        1627.25573979 Ha       44279.88161515 eV
  | Electrostatic energy          :       -3107.24449823 Ha      -84552.42477671 eV
  | Energy correction for multipole
  | error in Hartree potential    :           0.05784711 Ha           1.57409983 eV
  | Sum of eigenvalues per atom                           :       -2008.89108325 eV
  | Total energy (T->0) per atom                          :       -3684.87030695 eV  <-- do not rely on this value for anything but (periodic) metals
  | Electronic free energy per atom                       :       -3684.87030695 eV
  Evaluating new KS density.
  Integration grid: deviation in total charge (<rho> - N_e) =  -4.263256E-14

  Self-consistency convergence accuracy:
  | Change of charge density      :  0.1026E+00
  | Change of sum of eigenvalues  : -0.5128E+01 eV
  | Change of total energy        :  0.8392E-01 eV


------------------------------------------------------------
  End self-consistency iteration #     4       :  max(cpu_time)    wall_clock(cpu1)
  | Time for this iteration                     :        0.081 s           0.079 s
  | Charge density update                       :        0.026 s           0.026 s
  | Density mixing                              :        0.004 s           0.002 s
  | Hartree multipole update                    :        0.001 s           0.001 s
  | Hartree multipole summation                 :        0.017 s           0.017 s
  | Integration                                 :        0.028 s           0.028 s
  | Solution of K.-S. eqns.                     :        0.004 s           0.005 s
  | Total energy evaluation                     :        0.000 s           0.000 s

  Partial memory accounting:
  | Current value for overall tracked memory usage:
  |   Minimum:        0.274 MB (on task 23)
  |   Maximum:        0.293 MB (on task  0)
  |   Average:        0.288 MB
  | Peak value for overall tracked memory usage:
  |   Minimum:        1.288 MB (on task 20 after allocating wave)
  |   Maximum:        1.371 MB (on task  5 after allocating wave)
  |   Average:        1.335 MB
  | Largest tracked array allocation so far:
  |   Minimum:        0.696 MB (gradient_basis_wave on task 14)
  |   Maximum:        0.741 MB (gradient_basis_wave on task  3)
  |   Average:        0.720 MB
  Note:  These values currently only include a subset of arrays which are explicitly tracked.
  The "true" memory usage will be greater.
------------------------------------------------------------

------------------------------------------------------------
          Begin self-consistency iteration #    5

  Date     :  20220517, Time     :  111027.206
------------------------------------------------------------
  Pulay mixing of updated and previous charge densities.
  Renormalizing the density to the exact electron count on the 3D integration grid.
  | Formal number of electrons (from input files) :     120.0000000000
  | Integrated number of electrons on 3D grid     :     120.0000000000
  | Charge integration error                      :       0.0000000000
  | Normalization factor for density and gradient :       1.0000000000

  Evaluating partitioned Hartree potential by multipole expansion.
  | Original multipole sum: apparent total charge =  -0.122989E-14
  | Sum of charges compensated after spline to logarithmic grids =   0.234343E-03
  | Analytical far-field extrapolation by fixed multipoles:
  | Hartree multipole sum: apparent total charge =   0.103311E-14
  Summing up the Hartree potential.
  Time summed over all CPUs for potential: real work        0.379 s, elapsed        0.403 s
  | RMS charge density error from multipole expansion :   0.182206E-01

  Integrating Hamiltonian matrix: batch-based integration.
  Time summed over all CPUs for integration: real work        0.634 s, elapsed        0.674 s

  Updating Kohn-Sham eigenvalues and eigenvectors using ELSI and the ELPA eigensolver.
  Starting ELPA eigensolver
  Finished transformation to standard eigenproblem
  | Time :     0.000 s
  Finished solving standard eigenproblem
  | Time :     0.003 s
  Finished back-transformation of eigenvectors
  | Time :     0.000 s

  Obtaining occupation numbers and chemical potential using ELSI.
  | Chemical potential (Fermi level):    -8.04093296 eV
  Highest occupied state (VBM) at     -9.40670415 eV
  | Occupation number:      2.00000000

  Lowest unoccupied state (CBM) at    -4.90026447 eV
  | Occupation number:      0.00000000

  Overall HOMO-LUMO gap:      4.50643968 eV.

  Total energy components:
  | Sum of eigenvalues            :        -885.71396884 Ha      -24101.50336318 eV
  | XC energy correction          :        -145.00260911 Ha       -3945.72174996 eV
  | XC potential correction       :         188.80498241 Ha        5137.64497201 eV
  | Free-atom electrostatic energy:        -782.00597366 Ha      -21279.46523052 eV
  | Hartree energy correction     :          -1.08009931 Ha         -29.39099772 eV
  | Entropy correction            :           0.00000000 Ha           0.00000000 eV
[...]
   Total forces(   7)            :  0.917797E-01 -0.158937E+01 -0.317938E+01
  atom #    8
   Hellmann-Feynman              :  0.147755E+01  0.269343E+01 -0.514815E-01
   Ionic forces                  :  0.000000E+00  0.000000E+00  0.000000E+00
   Multipole                     :  0.310385E+00  0.442733E+00 -0.315372E-01
   Hartree pot. SCF incomplete   :  0.825695E-06 -0.483734E-06 -0.356685E-06
   Pulay + GGA                   : -0.365041E+01 -0.621535E+01  0.201207E+00
   ----------------------------------------------------------------
   Total forces(   8)            : -0.186247E+01 -0.307919E+01  0.118188E+00
  atom #    9
   Hellmann-Feynman              :  0.644224E+00 -0.956852E+00 -0.316584E+00
   Ionic forces                  :  0.000000E+00  0.000000E+00  0.000000E+00
   Multipole                     : -0.414952E-01 -0.199055E+00 -0.497688E+00
   Hartree pot. SCF incomplete   :  0.818605E-06 -0.792049E-06 -0.389545E-06
   Pulay + GGA                   : -0.112777E+01  0.279816E+01  0.271044E+01
   ----------------------------------------------------------------
   Total forces(   9)            : -0.525043E+00  0.164225E+01  0.189617E+01
  atom #   10
   Hellmann-Feynman              : -0.683618E+00  0.109022E+00 -0.213960E+00
   Ionic forces                  :  0.000000E+00  0.000000E+00  0.000000E+00
   Multipole                     : -0.163928E+00  0.469244E+00 -0.360317E+00
   Hartree pot. SCF incomplete   :  0.849537E-07  0.426461E-06  0.251176E-05
   Pulay + GGA                   :  0.264041E+01 -0.300401E+01  0.245782E+01
   ----------------------------------------------------------------
   Total forces(  10)            :  0.179287E+01 -0.242574E+01  0.188355E+01
  atom #   11
   Hellmann-Feynman              :  0.220656E+01  0.339123E+00  0.124769E+01
   Ionic forces                  :  0.000000E+00  0.000000E+00  0.000000E+00
   Multipole                     :  0.588118E+00 -0.676432E-01  0.193651E+00
   Hartree pot. SCF incomplete   :  0.921651E-06  0.700962E-06  0.290344E-06
   Pulay + GGA                   : -0.618625E+01 -0.151033E+00 -0.317943E+01
   ----------------------------------------------------------------
   Total forces(  11)            : -0.339157E+01  0.120448E+00 -0.173809E+01
  atom #   12
   Hellmann-Feynman              : -0.134047E+01 -0.215997E+01  0.198989E-01
   Ionic forces                  :  0.000000E+00  0.000000E+00  0.000000E+00
   Multipole                     : -0.153820E+00 -0.544129E+00 -0.562893E-01
   Hartree pot. SCF incomplete   : -0.804383E-06 -0.774479E-06  0.123528E-06
   Pulay + GGA                   :  0.285277E+01  0.624873E+01 -0.175924E+00
   ----------------------------------------------------------------
   Total forces(  12)            :  0.135848E+01  0.354463E+01 -0.212314E+00


  Self-consistency convergence accuracy:
  | Change of charge density      :  0.1432E-06
  | Change of sum of eigenvalues  :  0.7204E-06 eV
  | Change of total energy        :  0.2599E-09 eV
  | Change of forces              :  0.1039E-05 eV/A

  Writing Kohn-Sham eigenvalues.

  State    Occupation    Eigenvalue [Ha]    Eigenvalue [eV]
      1       2.00000         -55.648374        -1514.26931
      2       2.00000         -55.636631        -1513.94975
      3       2.00000         -55.636630        -1513.94973
      4       2.00000         -24.300242         -661.24322
      5       2.00000         -24.300240         -661.24319
      6       2.00000         -24.294555         -661.08848
      7       2.00000         -24.294551         -661.08836
      8       2.00000         -24.205235         -658.65796
      9       2.00000         -24.205090         -658.65400
     10       2.00000         -24.205087         -658.65394
     11       2.00000         -24.204161         -658.62874
     12       2.00000         -24.204159         -658.62868
     13       2.00000          -4.098885         -111.53634
     14       2.00000          -4.086607         -111.20223
     15       2.00000          -4.086606         -111.20220
     16       2.00000          -2.691734          -73.24581
     17       2.00000          -2.691187          -73.23092
     18       2.00000          -2.688495          -73.15766
     19       2.00000          -2.681234          -72.96009
     20       2.00000          -2.681233          -72.96005
     21       2.00000          -2.677442          -72.85690
     22       2.00000          -2.677439          -72.85683
     23       2.00000          -2.675725          -72.81019
     24       2.00000          -2.675725          -72.81017
     25       2.00000          -1.177534          -32.04233
     26       2.00000          -1.159425          -31.54956
     27       2.00000          -1.157147          -31.48758
     28       2.00000          -1.145444          -31.16913
     29       2.00000          -1.048774          -28.53860
     30       2.00000          -1.045496          -28.44940
     31       2.00000          -1.045471          -28.44872
     32       2.00000          -1.042354          -28.36391
     33       2.00000          -1.042351          -28.36381
     34       2.00000          -0.559968          -15.23750
     35       2.00000          -0.548857          -14.93515
     36       2.00000          -0.526195          -14.31849
     37       2.00000          -0.522748          -14.22469
     38       2.00000          -0.500277          -13.61324
     39       2.00000          -0.482622          -13.13281
     40       2.00000          -0.472698          -12.86276
     41       2.00000          -0.464845          -12.64908
     42       2.00000          -0.456247          -12.41511
     43       2.00000          -0.455132          -12.38478
     44       2.00000          -0.452733          -12.31950
     45       2.00000          -0.435272          -11.84435
     46       2.00000          -0.420838          -11.45158
     47       2.00000          -0.414637          -11.28285
     48       2.00000          -0.406087          -11.05020
     49       2.00000          -0.393817          -10.71630
     50       2.00000          -0.393491          -10.70744
     51       2.00000          -0.358344           -9.75103
     52       2.00000          -0.357994           -9.74151
     53       2.00000          -0.355411           -9.67121
     54       2.00000          -0.355134           -9.66368
     55       2.00000          -0.352717           -9.59793
     56       2.00000          -0.352511           -9.59232
     57       2.00000          -0.347716           -9.46184
     58       2.00000          -0.347499           -9.45593
     59       2.00000          -0.345184           -9.39293
     60       2.00000          -0.344909           -9.38545
     61       0.00000          -0.179837           -4.89362
     62       0.00000          -0.159600           -4.34295
     63       0.00000          -0.126312           -3.43712
     64       0.00000          -0.058768           -1.59917
     65       0.00000          -0.041951           -1.14154
     66       0.00000          -0.015084           -0.41045
     67       0.00000          -0.006449           -0.17549
     68       0.00000           0.002179            0.05929
     69       0.00000           0.023492            0.63925
     70       0.00000           0.024636            0.67037
     71       0.00000           0.056468            1.53656
     72       0.00000           0.076708            2.08732
     73       0.00000           0.130792            3.55903
     74       0.00000           0.142934            3.88944
     75       0.00000           0.152506            4.14990
     76       0.00000           0.156252            4.25182
     77       0.00000           0.162915            4.43313
     78       0.00000           0.182032            4.95335
     79       0.00000           0.186774            5.08238
     80       0.00000           0.190148            5.17420
     81       0.00000           0.198620            5.40472
     82       0.00000           0.200317            5.45091
     83       0.00000           0.211080            5.74379
     84       0.00000           0.216081            5.87986
     85       0.00000           0.222581            6.05674
     86       0.00000           0.232647            6.33064
     87       0.00000           0.246235            6.70041
     88       0.00000           0.252218            6.86320
     89       0.00000           0.255873            6.96266
     90       0.00000           0.263006            7.15677
     91       0.00000           0.293273            7.98038
     92       0.00000           0.296177            8.05937
     93       0.00000           0.309614            8.42502
     94       0.00000           0.336379            9.15335
     95       0.00000           0.347570            9.45785
     96       0.00000           0.361096            9.82594

  Highest occupied state (VBM) at     -9.38544595 eV
  | Occupation number:      2.00000000

  Lowest unoccupied state (CBM) at    -4.89361615 eV
  | Occupation number:      0.00000000

  Overall HOMO-LUMO gap:      4.49182980 eV.
  | Chemical Potential                          :    -8.03455579 eV

  Self-consistency cycle converged.


------------------------------------------------------------
  End self-consistency iteration #    14       :  max(cpu_time)    wall_clock(cpu1)
  | Time for this iteration                     :        0.258 s           0.257 s
  | Charge density & force component update     :        0.137 s           0.136 s
  | Density mixing                              :        0.005 s           0.003 s
  | Hartree multipole update                    :        0.001 s           0.001 s
  | Hartree multipole summation                 :        0.050 s           0.050 s
  | Hartree pot. SCF incomplete forces          :        0.032 s           0.033 s
  | Integration                                 :        0.028 s           0.028 s
  | Solution of K.-S. eqns.                     :        0.004 s           0.004 s
  | Total energy evaluation                     :        0.000 s           0.000 s

  Partial memory accounting:
  | Current value for overall tracked memory usage:
  |   Minimum:        0.274 MB (on task 23)
  |   Maximum:        0.293 MB (on task  0)
  |   Average:        0.289 MB
  | Peak value for overall tracked memory usage:
  |   Minimum:        2.868 MB (on task 20 after allocating hessian_basis_wave)
  |   Maximum:        3.030 MB (on task  5 after allocating hessian_basis_wave)
  |   Average:        2.958 MB
  | Largest tracked array allocation so far:
  |   Minimum:        1.393 MB (hessian_basis_wave on task 14)
  |   Maximum:        1.482 MB (hessian_basis_wave on task  3)
  |   Average:        1.441 MB
  Note:  These values currently only include a subset of arrays which are explicitly tracked.
  The "true" memory usage will be greater.
------------------------------------------------------------
  Removing unitary transformations (pure translations, rotations) from forces on atoms.
  Atomic forces before filtering:
  | Net force on center of mass :   0.250622E-02  0.116480E-02  0.123203E-02 eV/A
  | Net torque on center of mass:   0.922563E-03 -0.130394E-01  0.631989E-02 eV
  Atomic forces after filtering:
  | Net force on center of mass :   0.713624E-15  0.713624E-15  0.758226E-15 eV/A
  | Net torque on center of mass:   0.604214E-14  0.231301E-14  0.755268E-15 eV

  Energy and forces in a compact form:
  | Total energy uncorrected      :         -0.442184360868447E+05 eV
  | Total energy corrected        :         -0.442184360868447E+05 eV  <-- do not rely on this value for anything but (periodic) metals
  | Electronic free energy        :         -0.442184360868447E+05 eV
  Total atomic forces (unitary forces cleaned) [eV/Ang]:
  |    1          0.191838554144097E+01         -0.307315830897605E+01          0.111956087134247E+01
  |    2          0.154292401102597E+01          0.248823603254334E+01         -0.107660631763121E+00
  |    3          0.578682899310514E+00         -0.241480725932678E+01         -0.286686455586906E+01
  |    4          0.155991337194004E+01          0.344726263576762E+01          0.384881472756986E+00
  |    5         -0.138002758976807E+01          0.206132738113558E+01         -0.643934389582962E+00
  |    6         -0.168400869936212E+01         -0.721100124660303E+00          0.334698698164312E+01
  |    7          0.918221861277948E-01         -0.158920145769236E+01         -0.317935674614318E+01
  |    8         -0.186222643937503E+01         -0.307981567808832E+01          0.117601365506184E+00
  |    9         -0.525800249741453E+00          0.164192899540157E+01          0.189603747460892E+01
  |   10          0.179322331132653E+01         -0.242563205780689E+01          0.188345347560318E+01
  |   11         -0.339112365653950E+01          0.120056644494302E+00         -0.173855990556644E+01
  |   12          0.135823531361436E+01          0.354490319720829E+01         -0.212145412536095E+00

  ------------------------------------ 
  Start decomposition of the XC Energy 
  ------------------------------------ 
  X and C from original XC functional choice 
  Hartree-Fock Energy :          0.000000000 Ha              0.000000000 eV
  X Energy            :       -140.074155529 Ha          -3811.611704623 eV
  C Energy            :         -4.934199432 Ha           -134.266397934 eV
  Total XC Energy     :       -145.008354961 Ha          -3945.878102556 eV
  ------------------------------------ 
  LDA X and C from self-consistent density 
  X Energy LDA        :       -132.642890964 Ha          -3609.396707203 eV
  C Energy LDA        :         -8.816964157 Ha           -239.921801789 eV
  ------------------------------------ 
  End decomposition of the XC Energy 
  ------------------------------------ 

------------------------------------------------------------

------------------------------------------------------------------------------
  Final output of selected total energy values:

  The following output summarizes some interesting total energy values
  at the end of a run (AFTER all relaxation, molecular dynamics, etc.).

  | Total energy of the DFT / Hartree-Fock s.c.f. calculation      :         -44218.436086845 eV
  | Final zero-broadening corrected energy (caution - metals only) :         -44218.436086845 eV
  | For reference only, the value of 1 Hartree used in FHI-aims is :             27.211384500 eV

  Before relying on these values, please be sure to understand exactly which
  total energy value is referred to by a given number. Different objects may
  all carry the same name 'total energy'. Definitions:

  Total energy of the DFT / Hartree-Fock s.c.f. calculation:
  | Note that this energy does not include ANY quantities calculated after the
  | s.c.f. cycle, in particular not ANY RPA, MP2, etc. many-body perturbation terms.

  Final zero-broadening corrected energy:
  | For metallic systems only, a broadening of the occupation numbers at the Fermi
  | level can be extrapolated back to zero broadening by an electron-gas inspired
  | formula. For all systems that are not real metals, this value can be
  | meaningless and should be avoided.

------------------------------------------------------------------------------
  Methods described in the following list of references were used in this FHI-aims run.
  If you publish the results, please make sure to cite these reference if they apply.
  FHI-aims is an academic code, and for our developers (often, Ph.D. students
  and postdocs), scientific credit in the community is essential.
  Thank you for helping us!

  For any use of FHI-aims, please cite:

    Volker Blum, Ralf Gehrke, Felix Hanke, Paula Havu, Ville Havu,
    Xinguo Ren, Karsten Reuter, and Matthias Scheffler
    'Ab initio molecular simulations with numeric atom-centered orbitals'
    Computer Physics Communications 180, 2175-2196 (2009)
    http://dx.doi.org/10.1016/j.cpc.2009.06.022


  The ELSI infrastructure was used in your run to solve the Kohn-Sham electronic structure.
  Please check out http://elsi-interchange.org to learn more.
  If scalability is important for your project, please acknowledge ELSI by citing:

    V. W-z. Yu, F. Corsetti, A. Garcia, W. P. Huhn, M. Jacquelin, W. Jia,
    B. Lange, L. Lin, J. Lu, W. Mi, A. Seifitokaldani, A. Vazquez-Mayagoitia,
    C. Yang, H. Yang, and V. Blum
    'ELSI: A unified software interface for Kohn-Sham electronic structure solvers'
    Computer Physics Communications 222, 267-285 (2018).
    http://dx.doi.org/10.1016/j.cpc.2017.09.007


  For the real-space grid partitioning and parallelization used in this calculation, please cite:

    Ville Havu, Volker Blum, Paula Havu, and Matthias Scheffler,
    'Efficient O(N) integration for all-electron electronic structure calculation'
    'using numerically tabulated basis functions'
    Journal of Computational Physics 228, 8367-8379 (2009).
    http://dx.doi.org/10.1016/j.jcp.2009.08.008

  Of course, there are many other important community references, e.g., those cited in the
  above references. Our list is limited to references that describe implementations in the
  FHI-aims code. The reason is purely practical (length of this list) - please credit others as well.

------------------------------------------------------------
          Leaving FHI-aims.
          Date     :  20220517, Time     :  111028.428

          Computational steps:
          | Number of self-consistency cycles          :           14
          | Number of SCF (re)initializations          :            1

          Detailed time accounting                     :  max(cpu_time)    wall_clock(cpu1)
          | Total time                                  :        1.866 s           1.925 s
          | Preparation time                            :        0.184 s           0.184 s
          | Boundary condition initalization            :        0.000 s           0.001 s
          | Grid partitioning                           :        0.032 s           0.032 s
          | Preloading free-atom quantities on grid     :        0.014 s           0.014 s
          | Free-atom superposition energy              :        0.005 s           0.005 s
          | Total time for integrations                 :        0.441 s           0.440 s
          | Total time for solution of K.-S. equations  :        0.068 s           0.070 s
          | Total time for density & force components   :        0.612 s           0.613 s
          | Total time for mixing                       :        0.062 s           0.030 s
          | Total time for Hartree multipole update     :        0.018 s           0.020 s
          | Total time for Hartree multipole sum        :        0.305 s           0.305 s
          | Total time for total energy evaluation      :        0.002 s           0.000 s
          | Total time NSC force correction             :        0.065 s           0.066 s
          | Total time for scaled ZORA corrections      :        0.000 s           0.000 s

          Partial memory accounting:
          | Residual value for overall tracked memory usage across tasks:     0.000000 MB (should be 0.000000 MB)
          | Peak values for overall tracked memory usage:
          |   Minimum:        2.868 MB (on task 20 after allocating hessian_basis_wave)
          |   Maximum:        3.030 MB (on task  5 after allocating hessian_basis_wave)
          |   Average:        2.958 MB
          | Largest tracked array allocation:
          |   Minimum:        1.393 MB (hessian_basis_wave on task 14)
          |   Maximum:        1.482 MB (hessian_basis_wave on task  3)
          |   Average:        1.441 MB
          Note:  These values currently only include a subset of arrays which are explicitly tracked.
          The "true" memory usage will be greater.

          Have a nice day.
------------------------------------------------------------
