********************************************************************************
*                       GENERAL UTILITY LATTICE PROGRAM                        *
*                                 Julian Gale                                  *
*                       Curtin Institute for Computation                       *
*                           Department of Chemistry                            *
*                    Curtin University, Western Australia                      *
********************************************************************************
* Version = 5.1.1 * Last modified =  11th January 2019                         *
********************************************************************************
*  single       - perform a single point run                                   *
*  phonon       - calculate phonons for final geometry                         *
*  eigenvectors - output phonon eigenvectors                                   *
********************************************************************************

  Job Started  at 10:29.38 17th May        2022                               

  Number of CPUs =     1

  Host name      = login04                                 


  Total number of configurations input =      1

********************************************************************************
*  Input for Configuration =   1                                               *
********************************************************************************

  Formula = Al3F9                                                       

  Number of irreducible atoms/shells =      21


  Total number atoms/shells =      21

  Dimensionality = 0               :  Cluster


  Charge on cluster =  -0.000000


  Initial cluster dipoles : x =      0.447556 e.Angs
                            y =     -0.982428 e.Angs
                            z =     -0.312599 e.Angs

  Temperature of configuration =  0.000     K 

  Symmetry number =      1

  Cartesian coordinates of cluster :

--------------------------------------------------------------------------------
   No.  Atomic       x           y          z         Charge      Occupancy
        Label      (Angs)      (Angs)     (Angs)        (e)         (Frac)  
--------------------------------------------------------------------------------
      1 Al    c      1.2910      0.0392      2.4394     3.00000    1.000000    
      2 Al    c      1.4190      1.0234     -0.1583     3.00000    1.000000    
      3 Al    c     -0.3107      0.8260     -2.3267     3.00000    1.000000    
      4 F     c     -1.8619     -0.1468     -2.1176     0.59000    1.000000    
      5 F     c      2.3430     -0.3452      0.8400     0.59000    1.000000    
      6 F     c      0.0436      1.8276     -3.7946     0.59000    1.000000    
      7 F     c     -0.3623      1.6736     -0.6331     0.59000    1.000000    
      8 F     c      2.4485      2.5835     -0.2467     0.59000    1.000000    
      9 F     c      1.4383      0.0992     -1.8520     0.59000    1.000000    
     10 F     c      0.3338      1.3316      1.4382     0.59000    1.000000    
     11 F     c      2.5380      0.6023      3.6275     0.59000    1.000000    
     12 F     c     -0.1708     -0.9775      2.9144     0.59000    1.000000    
     13 F     s     -1.8619     -0.1468     -2.1176    -1.59000    1.000000    
     14 F     s      2.3430     -0.3452      0.8400    -1.59000    1.000000    
     15 F     s      0.0436      1.8276     -3.7946    -1.59000    1.000000    
     16 F     s     -0.3623      1.6736     -0.6331    -1.59000    1.000000    
     17 F     s      2.4485      2.5835     -0.2467    -1.59000    1.000000    
     18 F     s      1.4383      0.0992     -1.8520    -1.59000    1.000000    
     19 F     s      0.3338      1.3316      1.4382    -1.59000    1.000000    
     20 F     s      2.5380      0.6023      3.6275    -1.59000    1.000000    
     21 F     s     -0.1708     -0.9775      2.9144    -1.59000    1.000000    
--------------------------------------------------------------------------------


  Brillouin zone sampling points :

--------------------------------------------------------------------------------
  Point number          x          y          z            Weight
--------------------------------------------------------------------------------
        1           0.000000   0.000000   0.000000     1.00000000
--------------------------------------------------------------------------------


********************************************************************************
*  General input information                                                   *
********************************************************************************

  Species output for all configurations : 

--------------------------------------------------------------------------------
  Species    Type    Atomic    Atomic    Charge       Radii (Angs)     Library
                     Number     Mass       (e)     Cova   Ionic  VDW   Symbol
--------------------------------------------------------------------------------
    Al       Core       13      26.98   3.000000   1.350  0.000  2.050          
    F        Core        9      19.00   0.590000   0.710  0.000  1.300          
    F        Shell       9       0.00  -1.590000   0.710  0.000  1.300          
--------------------------------------------------------------------------------


  Accuracy factor for short range sums = 12.000

  Time limit = Infinity

  Maximum range for interatomic potentials =    100000.000000 Angstroms

  General interatomic potentials :

--------------------------------------------------------------------------------
Atom  Types   Potential      Parameter       Value         Units   Cutoffs(Ang)
  1     2                                                            Min /  Max 
--------------------------------------------------------------------------------
Al   c F    s Buckingham    Buckingham A     3760.0008    eV        0.000 10.000
                            Buckingham rho  0.22200000    Ang       
                            Buckingham C     0.0000000    eV*Ang^6  
--------------------------------------------------------------------------------
F    s F    s Buck 4 range  Buck4 A          1127.7000    eV        0.000 12.000
                            Buck4 rho       0.27530000    Ang       
                            Buck4 C          15.830000    eV*Ang^6  
                            Buck4 minimum    2.7900000    Ang       
--------------------------------------------------------------------------------
F    c F    s Spring (c-s)  Spring k 2       20.770000    eV*Ang^-2 0.000  0.800
                            Spring k 4       0.0000000    eV*Ang^-4 
--------------------------------------------------------------------------------

********************************************************************************
*  Output for configuration   1                                                *
********************************************************************************


  Components of energy : 

--------------------------------------------------------------------------------
  Interatomic potentials     =           9.83140902 eV    
  Monopole - monopole (real) =        -175.90977057 eV    
--------------------------------------------------------------------------------
  Total lattice energy       =        -166.07836155 eV    
--------------------------------------------------------------------------------
  Total lattice energy       =          -16024.0231 kJ/mol
--------------------------------------------------------------------------------

  Born effective charge tensors : 

-------------------------------------------------------------------------------
  Atom             x           y             z
-------------------------------------------------------------------------------
    1 Al    x       2.3017      0.1963      0.0299
            y       0.2323      1.8935     -0.2139
            z       0.0534     -0.2958      2.4565
-------------------------------------------------------------------------------
    2 Al    x       2.3328      0.0289      0.1081
            y       0.0296      2.2500     -0.0744
            z       0.1082     -0.0741      2.5917
-------------------------------------------------------------------------------
    3 Al    x       2.3750      0.2517      0.1562
            y       0.2374      1.8461     -0.1537
            z       0.1363     -0.0646      2.4306
-------------------------------------------------------------------------------
    4 F     x      -1.1132     -0.3452      0.0100
            y      -0.3323     -0.6782      0.0447
            z      -0.0872     -0.0348     -0.5561
-------------------------------------------------------------------------------
    5 F     x      -0.6292      0.2539      0.0328
            y       0.2438     -0.6299      0.1566
            z       0.0846      0.1677     -0.9397
-------------------------------------------------------------------------------
    6 F     x      -0.5225     -0.0362      0.0154
            y      -0.0600     -0.6689      0.2794
            z       0.0537      0.3155     -1.0349
-------------------------------------------------------------------------------
    7 F     x      -0.8331      0.1902     -0.1480
            y       0.2072     -0.5057     -0.0605
            z      -0.2381     -0.1096     -0.8553
-------------------------------------------------------------------------------
    8 F     x      -0.8160     -0.5057     -0.0056
            y      -0.4449     -1.1554      0.0552
            z       0.0044      0.0757     -0.5732
-------------------------------------------------------------------------------
    9 F     x      -0.7724      0.1622     -0.1236
            y       0.1761     -0.5170     -0.1773
            z      -0.1748     -0.1871     -0.9094
-------------------------------------------------------------------------------
   10 F     x      -0.6144      0.2205      0.0615
            y       0.1782     -0.5591      0.0699
            z       0.1475      0.1105     -1.0206
-------------------------------------------------------------------------------
   11 F     x      -0.7762     -0.1231     -0.3019
            y      -0.1086     -0.5412     -0.0802
            z      -0.3417     -0.1195     -0.9089
-------------------------------------------------------------------------------
   12 F     x      -0.9324     -0.2934      0.1652
            y      -0.3587     -0.7343      0.1542
            z       0.2536      0.2161     -0.6808
-------------------------------------------------------------------------------




  Moment of inertia tensor (10^-46 x kgm^2): 

-------------------------------------------------------------------------------
                x           y           z           Principal axis system
-------------------------------------------------------------------------------
       x        237.65       -6.84      -53.60           81.508583
       y         -6.84      267.21       32.96          245.362107
       z        -53.60       32.96      104.96          282.952268
-------------------------------------------------------------------------------
  Centre of mass (Ang) =     0.766001     0.703625     0.008403
-------------------------------------------------------------------------------


  Vibrational Frequency Calculation : 

--------------------------------------------------------------------------------

  Frequencies (cm-1) and Eigenvectors : 

  Frequency    -364.9502 -254.5118  -77.6041  -66.8273   -0.0000   -0.0000
  IR Intensity    0.0027    0.0004    0.0016    0.0007    0.0000    0.0000
     in X         0.0014    0.0000    0.0002    0.0005    0.0000    0.0000
     in Y         0.0009    0.0000    0.0000    0.0001    0.0000    0.0000
     in Z         0.0003    0.0004    0.0014    0.0000    0.0000    0.0000
  Raman Intsty    0.1780    0.0000    0.0000    0.0751    0.0000    0.0000

     1 x       0.301522  0.427806 -0.257382  0.212313 -0.038855  0.323081
     1 y      -0.267810 -0.342455 -0.352354  0.187139  0.052239  0.040615
     1 z      -0.071226 -0.172818 -0.014042  0.223127  0.320703  0.032527
     2 x      -0.571769 -0.015732  0.041725 -0.291539 -0.038855  0.323081
     2 y       0.479900  0.007728 -0.020492 -0.442303  0.052239  0.040615
     2 z       0.271380 -0.046810  0.124150  0.024958  0.320703  0.032527
     3 x       0.257712 -0.411600  0.232405  0.056937 -0.038855  0.323081
     3 y      -0.246289  0.334494  0.364618  0.263474  0.052239  0.040615
     3 z      -0.201587  0.221038 -0.060273 -0.239222  0.320703  0.032527
     4 x       0.049916 -0.137039  0.192832  0.053355 -0.032606  0.271124
     4 y       0.001409  0.011033  0.252076  0.174375  0.043838  0.034083
     4 z      -0.006796  0.020765 -0.026767 -0.184495  0.269128  0.027296
     5 x      -0.033999  0.112132 -0.061565 -0.015473 -0.032606  0.271124
     5 y      -0.012168 -0.138473 -0.137667 -0.095801  0.043838  0.034083
     5 z       0.073531  0.090561  0.015076  0.101585  0.269128  0.027296
     6 x       0.017468 -0.066842  0.148993  0.032875 -0.032606  0.271124
     6 y       0.001626  0.033625  0.250842  0.182514  0.043838  0.034083
     6 z      -0.044425  0.066277 -0.085717 -0.199409  0.269128  0.027296
     7 x      -0.012026 -0.263037  0.131189 -0.066865 -0.032606  0.271124
     7 y       0.007334  0.168375  0.254914 -0.073564  0.043838  0.034083
     7 z      -0.052338 -0.041565 -0.001971 -0.028171  0.269128  0.027296
     8 x      -0.041075 -0.003216  0.017471 -0.181724 -0.032606  0.271124
     8 y       0.050881  0.001580 -0.008580 -0.286441  0.043838  0.034083
     8 z       0.022204 -0.009569  0.051983  0.013783  0.269128  0.027296
     9 x      -0.071793 -0.023057  0.071655 -0.081613 -0.032606  0.271124
     9 y       0.006398  0.094715  0.132713 -0.063308  0.043838  0.034083
     9 z      -0.038930  0.174491  0.014944 -0.095225  0.269128  0.027296
    10 x       0.021922  0.170038 -0.131169 -0.044174 -0.032606  0.271124
    10 y      -0.009343 -0.122690 -0.254922 -0.084716  0.043838  0.034083
    10 z       0.048681 -0.235159  0.002029  0.039358  0.269128  0.027296
    11 x       0.040354  0.089397 -0.194421  0.161670 -0.032606  0.271124
    11 y      -0.009617 -0.044705 -0.228530  0.119238  0.043838  0.034083
    11 z       0.023674  0.000839 -0.049451  0.183844  0.269128  0.027296
    12 x       0.044171  0.121058 -0.194944  0.168510 -0.032606  0.271124
    12 y       0.004231 -0.003182 -0.251042  0.117800  0.043838  0.034083
    12 z      -0.023892 -0.068320  0.020488  0.158168  0.269128  0.027296


  Frequency       0.0000  130.2327  143.8028  147.2417  152.2774  154.9615
  IR Intensity    0.0000    0.0002    0.0020    0.0000    0.0002    0.0001
     in X         0.0000    0.0000    0.0002    0.0000    0.0000    0.0000
     in Y         0.0000    0.0000    0.0000    0.0000    0.0000    0.0000
     in Z         0.0000    0.0002    0.0017    0.0000    0.0001    0.0001
  Raman Intsty    0.0000    0.0000    0.0000    0.7764    0.0000    0.0000

     1 x      -0.034610 -0.007743  0.071024  0.013573  0.033038 -0.011080
     1 y       0.320485  0.086694 -0.006150 -0.038935  0.027060 -0.037033
     1 z      -0.056397  0.030052 -0.015687  0.111633 -0.006155  0.035759
     2 x      -0.034610 -0.000845 -0.013911  0.079650  0.000180 -0.021374
     2 y       0.320485  0.000415  0.006834  0.052307 -0.000089  0.010501
     2 z      -0.056397 -0.002515 -0.041396 -0.018132  0.000536 -0.063602
     3 x      -0.034610  0.015487 -0.065603 -0.058712 -0.032755  0.033568
     3 y       0.320485 -0.090498  0.003487 -0.003426 -0.027199  0.025984
     3 z      -0.056397 -0.007008  0.031819 -0.103457  0.006998  0.031158
     4 x      -0.029044  0.159471 -0.143316 -0.120163 -0.331976  0.068116
     4 y       0.268945 -0.231324  0.198098  0.094760  0.376790  0.012668
     4 z      -0.047327  0.158864  0.344057 -0.152333 -0.094146  0.201327
     5 x      -0.029044  0.108425 -0.103035  0.175664  0.164850  0.137789
     5 y       0.268945  0.022236  0.062615  0.156084  0.216657  0.148670
     5 z      -0.047327  0.027303 -0.081404  0.077547  0.115731  0.062837
     6 x      -0.029044  0.028225 -0.435811 -0.375203  0.262261  0.142120
     6 y       0.268945 -0.293097  0.059968 -0.265340 -0.215639  0.027879
     6 z      -0.047327 -0.163647 -0.015736 -0.365819 -0.033132  0.075780
     7 x      -0.029044  0.054382  0.307583  0.066776  0.137956  0.011747
     7 y       0.268945  0.451214  0.069288  0.013148  0.051767  0.027776
     7 z      -0.047327 -0.220223 -0.033678 -0.059205 -0.062560  0.035493
     8 x      -0.029044  0.033924 -0.003426  0.120121  0.038762 -0.272804
     8 y       0.268945 -0.016665  0.001684  0.160127 -0.019042  0.134017
     8 z      -0.047327  0.100945 -0.010199 -0.013933  0.115339 -0.811752
     9 x      -0.029044 -0.073014  0.028543  0.110340 -0.085055 -0.087921
     9 y       0.268945 -0.039631 -0.026020  0.188175 -0.255857 -0.173172
     9 z      -0.047327  0.078065 -0.140257 -0.116829  0.121709  0.085561
    10 x      -0.029044 -0.217341 -0.273242  0.089730 -0.152542  0.008799
    10 y       0.268945 -0.371162 -0.086157  0.001875 -0.044601 -0.037872
    10 z      -0.047327 -0.264673  0.135857  0.009088  0.019157  0.025645
    11 x      -0.029044 -0.090577  0.334359 -0.111049 -0.208849 -0.071995
    11 y       0.268945  0.323727 -0.010133 -0.395104  0.189398 -0.062330
    11 z      -0.047327 -0.021889 -0.286134  0.420200  0.192061  0.132838
    12 x      -0.029044 -0.011717  0.298463  0.002661  0.174040  0.062823
    12 y       0.268945  0.158741 -0.274312  0.034424 -0.299203 -0.076984
    12 z      -0.047327  0.280792  0.117599  0.213148 -0.375802  0.188321


  Frequency     155.2379  157.6923  164.4373  167.9488  182.2598  184.5085
  IR Intensity    0.0001    0.0002    0.0022    0.0011    0.0175    0.0015
     in X         0.0000    0.0000    0.0002    0.0008    0.0017    0.0013
     in Y         0.0001    0.0002    0.0001    0.0001    0.0004    0.0001
     in Z         0.0000    0.0000    0.0019    0.0001    0.0153    0.0001
  Raman Intsty    0.0691    0.1473    0.0000    0.0970    0.0000    0.0189

     1 x       0.031884  0.022577  0.034047  0.012070  0.087519 -0.027752
     1 y       0.034819  0.041603  0.072717  0.092689  0.086238  0.059894
     1 z       0.002134 -0.014988 -0.017959  0.001942 -0.032497  0.043148
     2 x      -0.041591 -0.061212 -0.020785 -0.067845 -0.052300  0.019149
     2 y      -0.067631 -0.066448  0.010211 -0.120497  0.025692  0.000057
     2 z       0.002811  0.009601 -0.061848  0.002907 -0.155625 -0.006426
     3 x       0.027699  0.030989 -0.044966  0.017554 -0.097731 -0.041860
     3 y       0.036876  0.037471 -0.067354  0.089994 -0.081222  0.066825
     3 z      -0.010321  0.010041 -0.014531  0.018261  0.002114  0.001167
     4 x       0.327109 -0.012230  0.007145  0.173551 -0.137251  0.185146
     4 y      -0.320121  0.193981 -0.157558 -0.072817 -0.050177 -0.226885
     4 z       0.208679  0.424565 -0.166428  0.273383  0.210922 -0.292900
     5 x       0.110605 -0.170143  0.186823  0.095230 -0.337270 -0.325377
     5 y       0.076174 -0.177546  0.301224  0.146072 -0.165906 -0.147925
     5 z       0.066891 -0.015474  0.017006 -0.005529 -0.173788 -0.112366
     6 x      -0.386238 -0.019843 -0.031374  0.191075  0.363643 -0.014441
     6 y       0.237910 -0.161101  0.380157 -0.254960  0.057524 -0.076519
     6 z       0.011669 -0.145250  0.302099 -0.175651  0.242214 -0.096946
     7 x       0.015261  0.147599  0.133150 -0.085505  0.064288  0.062837
     7 y       0.034769  0.261567  0.150728 -0.030962  0.037163  0.352650
     7 z      -0.008676 -0.074019 -0.155907  0.045441 -0.179297 -0.076737
     8 x       0.019729  0.208046  0.046743 -0.527153  0.012926 -0.106071
     8 y      -0.148079 -0.292917 -0.022962  0.264782 -0.006349  0.218160
     8 z      -0.031095 -0.118277  0.139077  0.220874  0.038464  0.071663
     9 x       0.056671 -0.144592 -0.169103  0.093837  0.184153 -0.209075
     9 y       0.102659 -0.190096 -0.309931  0.146752  0.241123 -0.205059
     9 z      -0.093578  0.060552  0.035725 -0.009668 -0.281824  0.233705
    10 x       0.020736  0.187448 -0.213345 -0.098370 -0.160862  0.129944
    10 y       0.032077  0.241992 -0.111332 -0.024646  0.010280  0.319685
    10 z       0.007616  0.044554 -0.082724  0.007171 -0.108070  0.122947
    11 x      -0.293451  0.054034  0.166244  0.231956 -0.154417  0.038123
    11 y       0.192325 -0.197393 -0.446409 -0.275047 -0.160305 -0.102339
    11 z       0.287786  0.074576  0.099227 -0.054013  0.380357  0.059458
    12 x       0.108140 -0.241208 -0.088504 -0.029076  0.239281  0.299048
    12 y      -0.212556  0.306466  0.197525  0.026723  0.000055 -0.282839
    12 z      -0.442885 -0.256773 -0.075658 -0.329547  0.092676  0.046026


  Frequency     189.7064  194.5375  217.8419  225.5193  250.5574  274.7199
  IR Intensity    0.0087    0.0000    0.0139    0.0499    0.0926    0.0185
     in X         0.0000    0.0000    0.0085    0.0049    0.0498    0.0018
     in Y         0.0085    0.0000    0.0050    0.0012    0.0411    0.0004
     in Z         0.0002    0.0000    0.0004    0.0438    0.0017    0.0162
  Raman Intsty    0.0209    0.0000    0.0829    0.0000    1.5485    0.0000

     1 x      -0.071843  0.101272  0.056735 -0.000177 -0.050560  0.208696
     1 y       0.057971 -0.025122  0.103955  0.156544 -0.066205 -0.220920
     1 z       0.022662  0.062498  0.039537  0.181650  0.243770 -0.136361
     2 x      -0.061738  0.012578 -0.007157  0.041380 -0.142254 -0.037488
     2 y       0.081448 -0.006179  0.029283 -0.020327 -0.226986  0.018415
     2 z       0.034194  0.037426  0.007240  0.123131  0.010334 -0.111547
     3 x      -0.065328 -0.041922  0.032306  0.091988 -0.190687 -0.226235
     3 y       0.054771 -0.004034  0.115955 -0.201646  0.002632  0.229536
     3 z       0.042050  0.114102 -0.033155  0.091543 -0.173189  0.084172
     4 x       0.069071 -0.016141  0.179455 -0.133717 -0.160090  0.117358
     4 y      -0.163099 -0.080061  0.046830  0.083723 -0.219471 -0.170493
     4 z      -0.099379 -0.338311  0.085584 -0.194632  0.119160 -0.078410
     5 x      -0.034609 -0.257259 -0.238401  0.090986  0.043315  0.055555
     5 y       0.316122 -0.154764 -0.070368 -0.198022 -0.010965  0.101707
     5 z       0.129892  0.324420 -0.134596 -0.334112  0.300688 -0.279874
     6 x       0.202692 -0.103377 -0.029019 -0.078525  0.196021  0.131099
     6 y      -0.170375 -0.125805  0.005458 -0.045953  0.100072 -0.120286
     6 z      -0.068835  0.084988 -0.146501  0.168796 -0.015318 -0.077816
     7 x      -0.260859  0.293436 -0.207390 -0.032611  0.085296  0.361542
     7 y       0.121576  0.042253 -0.303238  0.309275  0.054193 -0.088371
     7 z       0.089438 -0.095513  0.176019  0.254845 -0.160559  0.252707
     8 x       0.299730 -0.085793  0.454399 -0.051774  0.311738  0.014827
     8 y      -0.447366  0.042147  0.364714  0.025431  0.408277 -0.007284
     8 z      -0.174587 -0.255281 -0.092498 -0.154055 -0.037362  0.044119
     9 x      -0.073554  0.412599 -0.118677 -0.250645 -0.143587 -0.219430
     9 y       0.335256  0.078452 -0.129180  0.276455  0.080849 -0.021204
     9 z       0.013996  0.137804  0.221654 -0.140970 -0.255454 -0.207751
    10 x      -0.250075 -0.295718 -0.299576  0.146281  0.168321 -0.132348
    10 y       0.116277 -0.041133 -0.257953 -0.365113  0.013408 -0.024219
    10 z       0.121538  0.088716 -0.098291  0.083390  0.086487  0.429278
    11 x       0.186535  0.145238  0.063624  0.166945  0.175956 -0.139294
    11 y      -0.162438  0.105242 -0.040051  0.002517  0.109929  0.124310
    11 z      -0.116915  0.039580  0.129162  0.094303 -0.075023  0.053433
    12 x       0.098097 -0.178698  0.098009 -0.015655 -0.219977 -0.123737
    12 y      -0.177357  0.175775  0.086840 -0.010346 -0.190052  0.173627
    12 z      -0.013009 -0.241444 -0.156764 -0.249838 -0.059040  0.059426


  Frequency     305.2609  314.4510  317.3019  335.9907  351.0935  371.1050
  IR Intensity    0.1789    0.0608    0.0341    0.2564    0.0037    0.2606
     in X         0.0759    0.0060    0.0257    0.0254    0.0008    0.0258
     in Y         0.1013    0.0015    0.0068    0.0061    0.0026    0.0062
     in Z         0.0016    0.0533    0.0016    0.2248    0.0003    0.2286
  Raman Intsty    0.4789    0.0000    1.7558    0.0000    4.3595    0.0000

     1 x      -0.001670  0.113931 -0.081109  0.039882 -0.009456  0.042628
     1 y       0.038935  0.038412  0.034845  0.207837 -0.088616  0.250704
     1 z       0.001496 -0.020667 -0.105263 -0.158741  0.053374 -0.229129
     2 x       0.409305 -0.078522 -0.081610 -0.086096  0.148311 -0.074802
     2 y       0.424878  0.038572 -0.106295  0.042295  0.085790  0.036747
     2 z      -0.067410 -0.233646  0.009881 -0.256186 -0.035679 -0.222583
     3 x       0.001567 -0.107282  0.000405 -0.145785 -0.047670 -0.193652
     3 y       0.037347 -0.041679 -0.005198 -0.155814 -0.069843 -0.176515
     3 z       0.011131  0.040457  0.137280 -0.156380 -0.060334 -0.220254
     4 x      -0.052448  0.401968  0.279668  0.184971  0.063063 -0.044058
     4 y      -0.094808  0.299094  0.194298  0.150713  0.078349 -0.022318
     4 z       0.034891 -0.062648 -0.104522  0.027301  0.016186  0.040581
     5 x      -0.126400 -0.188549  0.011791  0.351446  0.299194 -0.140179
     5 y      -0.175810  0.201937 -0.112748 -0.389725 -0.319111  0.031311
     5 z       0.341998 -0.032638  0.423075  0.063765  0.005927  0.252882
     6 x       0.067102 -0.064031 -0.064456  0.007595  0.000706  0.072186
     6 y       0.128344 -0.185515 -0.217735  0.023862  0.025256  0.166135
     6 z      -0.254630  0.236737  0.243730  0.069785 -0.010765 -0.157126
     7 x       0.042587 -0.143890  0.092802  0.167908 -0.459607 -0.012800
     7 y      -0.117360  0.057179 -0.000183 -0.120218  0.228985  0.212862
     7 z       0.105541  0.026442  0.159132 -0.082989 -0.059724  0.402437
     8 x      -0.203450  0.021859  0.055706  0.009217  0.035660  0.013992
     8 y      -0.149586 -0.010736  0.117513 -0.004528  0.083691 -0.006873
     8 z       0.043678  0.065041  0.000679  0.027426  0.001832  0.041634
     9 x      -0.320074  0.112298 -0.250919 -0.206305  0.205368  0.258433
     9 y      -0.080669 -0.164482  0.016310  0.318426 -0.273019 -0.089404
     9 z      -0.234296 -0.194245 -0.358630  0.368117 -0.273251  0.098991
    10 x      -0.039487  0.125407 -0.019409 -0.171864 -0.311066  0.226780
    10 y      -0.077041 -0.048098  0.054940  0.122161  0.156016 -0.317980
    10 z      -0.138676 -0.081444 -0.174756  0.071212  0.382280  0.234290
    11 x       0.216401  0.208950 -0.216558  0.032726  0.009371 -0.166678
    11 y       0.055003  0.114320 -0.143021 -0.043669  0.021001 -0.119716
    11 z       0.189623  0.194491 -0.208854  0.050191  0.015016 -0.124043
    12 x      -0.071852 -0.388366  0.304795 -0.146900  0.048652  0.061424
    12 y      -0.085275 -0.305769  0.181964 -0.169416  0.085427  0.013787
    12 z      -0.022848  0.103101 -0.029780  0.085982 -0.026692  0.011092


  Frequency     377.4930  421.7992  438.0915  449.0560  518.9005  563.4974
  IR Intensity    0.1798    0.4375    0.6404    0.4334    0.0377    0.0081
     in X         0.0239    0.2101    0.4151    0.0429    0.0317    0.0008
     in Y         0.1428    0.1774    0.2052    0.0104    0.0035    0.0002
     in Z         0.0131    0.0500    0.0201    0.3801    0.0025    0.0071
  Raman Intsty    0.5993    0.1984    0.3689    0.0000    0.9031    0.0000

     1 x       0.031798  0.262883 -0.359137 -0.393339 -0.219536  0.008730
     1 y      -0.271672 -0.202383 -0.336134 -0.190760  0.123317  0.125589
     1 z      -0.001111 -0.238708  0.117658 -0.225136 -0.520729 -0.433431
     2 x       0.293220  0.127776 -0.102379 -0.083891 -0.206609  0.230550
     2 y      -0.111236 -0.366414 -0.021768  0.041211 -0.118685 -0.113256
     2 z      -0.116905 -0.103434  0.030810 -0.249624  0.049843  0.686020
     3 x      -0.000285  0.331824 -0.390056  0.201273  0.142920 -0.274727
     3 y      -0.255910 -0.236250 -0.320937  0.285122 -0.054740  0.005081
     3 z      -0.096578 -0.033569  0.025638 -0.346397  0.557799 -0.358067
     4 x       0.159586 -0.168033  0.196353 -0.151294 -0.030391  0.065755
     4 y       0.194709 -0.019732  0.148215 -0.128283 -0.001822  0.026345
     4 z       0.030770  0.018529 -0.026006  0.046317 -0.057768  0.023818
     5 x      -0.254931 -0.084388  0.062865  0.043623  0.045580 -0.028503
     5 y       0.223638  0.097234  0.035239 -0.020410 -0.031454  0.027922
     5 z       0.110226  0.072482 -0.096169  0.070395  0.059774 -0.031287
     6 x      -0.017573 -0.040253  0.107457 -0.097423  0.033346  0.006357
     6 y       0.060767  0.099834  0.188741 -0.226081  0.127980 -0.058593
     6 z       0.034433 -0.060848 -0.209201  0.312704 -0.232878  0.114735
     7 x      -0.147157 -0.075433  0.141284 -0.015988 -0.048953  0.018386
     7 y      -0.053746  0.207812  0.050590  0.024908 -0.035910 -0.004763
     7 z      -0.379733  0.358478  0.220327  0.113797 -0.210108 -0.021043
     8 x      -0.080166 -0.006030 -0.007141  0.018379  0.072583 -0.021753
     8 y       0.015311  0.130724 -0.033710 -0.009028  0.072675  0.010686
     8 z       0.029469  0.023608 -0.003165  0.054688 -0.012395 -0.064727
     9 x      -0.247641 -0.100935  0.110531  0.008501 -0.001747  0.001696
     9 y       0.220057  0.105362  0.011823 -0.005197 -0.008205 -0.014753
     9 z       0.131922  0.023246  0.045668  0.084708 -0.081053 -0.048481
    10 x       0.100614 -0.251584 -0.011661  0.077480  0.081106 -0.026685
    10 y      -0.175461  0.294344  0.125723 -0.055118 -0.099800  0.008840
    10 z       0.357534 -0.165675 -0.234778  0.069182  0.176897 -0.003651
    11 x      -0.028476  0.013307  0.227865  0.284456  0.176472  0.068239
    11 y       0.066123  0.073523  0.129597  0.134198  0.057668  0.021948
    11 z       0.001991  0.098523  0.149071  0.243842  0.193012  0.107234
    12 x       0.128781 -0.147587  0.187213  0.161106  0.009505 -0.041252
    12 y       0.209843 -0.029776  0.152711  0.123458 -0.021422 -0.038382
    12 z      -0.060893  0.079368 -0.053217 -0.017110  0.060950  0.049094




--------------------------------------------------------------------------------
  Vibrational properties (for cluster):  Temperature  =       0.000 K
--------------------------------------------------------------------------------
  Zero point energy            =        0.487108 eV
--------------------------------------------------------------------------------

  Phonon density of states : 

--------------------------------------------------------------------------------
 Frequency (cm-1) Density of States                                             
--------------------------------------------------------------------------------
    0.00000 |***************                                               0.033
    8.80465 |                                                              0.000
   17.60930 |                                                              0.000
   26.41395 |                                                              0.000
   35.21859 |                                                              0.000
   44.02324 |                                                              0.000
   52.82789 |                                                              0.000
   61.63254 |                                                              0.000
   70.43719 |                                                              0.000
   79.24184 |                                                              0.000
   88.04648 |                                                              0.000
   96.85113 |                                                              0.000
  105.65578 |                                                              0.000
  114.46043 |                                                              0.000
  123.26508 |***************                                               0.033
  132.06973 |                                                              0.000
  140.87437 |******************************                                0.067
  149.67902 |************************************************************  0.133
  158.48367 |***************                                               0.033
  167.28832 |***************                                               0.033
  176.09297 |******************************                                0.067
  184.89762 |***************                                               0.033
  193.70226 |***************                                               0.033
  202.50691 |                                                              0.000
  211.31156 |***************                                               0.033
  220.11621 |***************                                               0.033
  228.92086 |                                                              0.000
  237.72551 |                                                              0.000
  246.53015 |***************                                               0.033
  255.33480 |                                                              0.000
  264.13945 |                                                              0.000
  272.94410 |***************                                               0.033
  281.74875 |                                                              0.000
  290.55340 |                                                              0.000
  299.35804 |***************                                               0.033
  308.16269 |***************                                               0.033
  316.96734 |***************                                               0.033
  325.77199 |                                                              0.000
  334.57664 |***************                                               0.033
  343.38129 |***************                                               0.033
  352.18593 |                                                              0.000
  360.99058 |                                                              0.000
  369.79523 |******************************                                0.067
  378.59988 |                                                              0.000
  387.40453 |                                                              0.000
  396.20918 |                                                              0.000
  405.01382 |                                                              0.000
  413.81847 |***************                                               0.033
  422.62312 |                                                              0.000
  431.42777 |***************                                               0.033
  440.23242 |                                                              0.000
  449.03707 |***************                                               0.033
  457.84172 |                                                              0.000
  466.64636 |                                                              0.000
  475.45101 |                                                              0.000
  484.25566 |                                                              0.000
  493.06031 |                                                              0.000
  501.86496 |                                                              0.000
  510.66961 |***************                                               0.033
  519.47425 |                                                              0.000
  528.27890 |                                                              0.000
  537.08355 |                                                              0.000
  545.88820 |                                                              0.000
  554.69285 |***************                                               0.033
--------------------------------------------------------------------------------



  XYZ File written as 001/2/sp_mod_80/sp_mod_80_eig.xyz


  Time to end of properties =       0.0134 seconds


  Peak dynamic memory used =       0.64 MB 


  Timing analysis for GULP :

--------------------------------------------------------------------------------
  Task / Subroutine                                          Time (Seconds)
--------------------------------------------------------------------------------
  Calculation of phonons                                          0.0038
--------------------------------------------------------------------------------
  Total CPU time                                                  0.0134
--------------------------------------------------------------------------------


  Job Finished at 10:29.38 17th May        2022                               

