------------------------------------------------------------
          Invoking FHI-aims ...

          When using FHI-aims, please cite the following reference:

            Volker Blum, Ralf Gehrke, Felix Hanke, Paula Havu,
            Ville Havu, Xinguo Ren, Karsten Reuter, and Matthias Scheffler,
            'Ab Initio Molecular Simulations with Numeric Atom-Centered Orbitals',
            Computer Physics Communications 180, 2175-2196 (2009)

          In addition, many other developments in FHI-aims are likely important for
          your particular application. A partial list of references is given at the end of
          this file. Thank you for giving credit to the authors of these developments.

          For any questions about FHI-aims, please visit our slack channel at

            https://fhi-aims.slack.com

          and our main development and support site at

            https://aims-git.rz-berlin.mpg.de .

          The latter site, in particular, has a wiki to collect information, as well
          as an issue tracker to log discussions, suggest improvements, and report issues
          or bugs. https://aims-git.rz-berlin.mpg.de is also the main development site
          of the project and all new and updated code versions can be obtained there.
          Please send an email to aims-coordinators@fhi-berlin.mpg.de and we will add
          you to these sites. They are for you and everyone is welcome there.

------------------------------------------------------------



  Date     :  20220517, Time     :  110541.616
  Time zero on CPU 1             :   0.413340000000000E-01  s.
  Internal wall clock time zero  :           422017541.616  s.

  FHI-aims created a unique identifier for this run for later identification
  aims_uuid : 4BBCBC19-4772-43A5-A71C-A0E4C775898D

  Build configuration of the current instance of FHI-aims
  -------------------------------------------------------
  FHI-aims version      : 210914
  Commit number         : GITDIR-NOTFOUND
  CMake host system     : Linux-3.10.0-693.17.1.el7.x86_64
  CMake version         : 3.21.1
  Fortran compiler      : /shared/ucl/apps/intel/2018.Update3/impi/2018.3.222/intel64/bin/mpiifort (Intel) version 18.0.3.20180410
  Fortran compiler flags: -O3 -ip -fp-model precise
  C compiler            : /shared/ucl/apps/intel/2018.Update3/compilers_and_libraries_2018.3.222/linux/bin/intel64/icc (Intel) version 18.0.3.20180410
  C compiler flags      : -O3 -ip -fp-model precise -std=gnu99
  ELPA2 kernel          : AVX2
  Using MPI
  Using ScaLAPACK
  Using LibXC
  Using i-PI
  Using RLSY
  Linking against: /shared/ucl/apps/intel/2019.Update5/compilers_and_libraries_2019.5.281/linux/mkl/lib/intel64/libmkl_intel_lp64.so
                   /shared/ucl/apps/intel/2019.Update5/compilers_and_libraries_2019.5.281/linux/mkl/lib/intel64/libmkl_sequential.so
                   /shared/ucl/apps/intel/2019.Update5/compilers_and_libraries_2019.5.281/linux/mkl/lib/intel64/libmkl_core.so
                   /shared/ucl/apps/intel/2019.Update5/compilers_and_libraries_2019.5.281/linux/mkl/lib/intel64/libmkl_blacs_intelmpi_lp64.so
                   /shared/ucl/apps/intel/2019.Update5/compilers_and_libraries_2019.5.281/linux/mkl/lib/intel64/libmkl_scalapack_lp64.so

  Using       24 parallel tasks.
  Task        0 on host node-k98e-003 reporting.
  Task        1 on host node-k98e-003 reporting.
  Task        2 on host node-k98e-003 reporting.
  Task        3 on host node-k98e-003 reporting.
  Task        4 on host node-k98e-003 reporting.
  Task        5 on host node-k98e-003 reporting.
  Task        6 on host node-k98e-003 reporting.
  Task        7 on host node-k98e-003 reporting.
  Task        8 on host node-k98e-003 reporting.
  Task        9 on host node-k98e-003 reporting.
  Task       10 on host node-k98e-003 reporting.
  Task       11 on host node-k98e-003 reporting.
  Task       12 on host node-k98e-003 reporting.
  Task       13 on host node-k98e-003 reporting.
  Task       14 on host node-k98e-003 reporting.
  Task       15 on host node-k98e-003 reporting.
  Task       16 on host node-k98e-003 reporting.
  Task       17 on host node-k98e-003 reporting.
  Task       18 on host node-k98e-003 reporting.
  Task       19 on host node-k98e-003 reporting.
  Task       20 on host node-k98e-003 reporting.
  Task       21 on host node-k98e-003 reporting.
  Task       22 on host node-k98e-003 reporting.
  Task       23 on host node-k98e-003 reporting.

  Performing system and environment tests:
  | Environment variable OMP_NUM_THREADS correctly set to 1.
  | Checking for ScaLAPACK...
  | Testing pdtran()...
  | All pdtran() tests passed.

  Obtaining array dimensions for all initial allocations:
  
  -----------------------------------------------------------------------
  Parsing control.in (first pass over file, find array dimensions only).
  The contents of control.in will be repeated verbatim below
  unless switched off by setting 'verbatim_writeout .false.' .
  in the first line of control.in .
  -----------------------------------------------------------------------
  
  #########################################################################################  Physical model
  #########################################################################################
  xc                 pbesol
  spin               none
  relativistic       atomic_zora scalar
  charge             0.0
  #  SCF convergence
  occupation_type    gaussian 0.01
  mixer              pulay
  n_max_pulay        10
  charge_mix_param   0.5
  sc_accuracy_rho    1E-5
  sc_accuracy_eev    1E-3
  sc_accuracy_etot   1E-6
  sc_accuracy_forces 1E-4
  sc_iter_limit      1500
  #  Relaxation
  #relax_geometry   bfgs 1.e-3
  
  ################################################################################
  #
  #  FHI-aims code project
  #  VB, Fritz-Haber Institut, 2009
  #
  #  Suggested "light" defaults for Al atom (to be pasted into control.in file)
  #  Be sure to double-check any results obtained with these settings for post-processing,
  #  e.g., with the "tight" defaults and larger basis sets.
  #
  ################################################################################
    species        Al
  #     global species definitions
      nucleus             13
      mass                26.9815386
  #
      l_hartree           4
  #
      cut_pot             3.5          1.5  1.0
      basis_dep_cutoff    1e-4
  #
      radial_base         41 5.0
      radial_multiplier   1
      angular_grids       specified
        division   0.6594  110
        division   0.8170  194
        division   0.9059  302
  #      division   1.0363  434
  #      division   1.1443  590
  #      division   1.2621  770
  #      division   2.8177  974
  #      outer_grid   974
        outer_grid   302
  ################################################################################
  #
  #  Definition of "minimal" basis
  #
  ################################################################################
  #     valence basis states
      valence      3  s   2.
      valence      3  p   1.
  #     ion occupancy
      ion_occ      3  s   1.
      ion_occ      2  p   6.
  ################################################################################
  #
  #  Suggested additional basis functions. For production calculations,
  #  uncomment them one after another (the most important basis functions are
  #  listed first).
  #
  #  Constructed for dimers: 2.0 A, 2.5 A, 3.0 A, 3.75 A, 4.5 A
  #
  ################################################################################
  #  "First tier" - improvements: -199.47 meV to -10.63 meV
       ionic 3 d auto
       ionic 3 p auto
  #     hydro 4 f 4.7
       ionic 3 s auto
  #  "Second tier" - improvements: -5.35 meV to -1.57 meV
  #     hydro 5 g 7
  #     hydro 3 d 6
  #     hydro 2 s 11.6
  #     hydro 2 p 0.9
  #  "Third tier" - improvements: -0.63 meV to -0.20 meV
  #     hydro 5 f 7.6
  #     hydro 4 p 7.2
  #     hydro 4 s 3.7
  #     hydro 4 d 7.6
  #  "Fourth tier" - improvements: -0.17 meV to -0.08 meV
  #     hydro 4 d 13.6
  #     hydro 5 g 11.2
  #     hydro 4 d 0.9
  #     hydro 1 s 0.4
  #     hydro 4 p 0.1
  #     hydro 5 f 9.8
  #  Further basis functions that fell out of the optimization - noise level...
  #     hydro 4 p 5
  
  ################################################################################
  #
  #  FHI-aims code project
  #  VB, Fritz-Haber Institut, 2009
  #
  #  Suggested "light" defaults for F atom (to be pasted into control.in file)
  #  Be sure to double-check any results obtained with these settings for post-processing,
  #  e.g., with the "tight" defaults and larger basis sets.
  #
  ################################################################################
    species        F
  #     global species definitions
      nucleus             9
      mass                18.9984032
  #
      l_hartree           4
  #
      cut_pot             3.5  1.5  1.0
      basis_dep_cutoff    1e-4
  #
      radial_base         37 5.0
      radial_multiplier   1
      angular_grids specified
        division   0.4014  110
        division   0.5291  194
        division   0.6019  302
  #      division   0.6814  434
  #      division   0.7989  590
  #      division   0.8965  770
  #      division   1.3427  974
  #      outer_grid   974
        outer_grid   302
  ################################################################################
  #
  #  Definition of "minimal" basis
  #
  ################################################################################
  #     valence basis states
      valence      2  s   2.
      valence      2  p   5.
  #     ion occupancy
      ion_occ      2  s   1.
      ion_occ      2  p   4.
  ################################################################################
  #
  #  Suggested additional basis functions. For production calculations,
  #  uncomment them one after another (the most important basis functions are
  #  listed first).
  #
  #  Constructed for dimers: 1.2 A, 1.418 A, 1.75 A, 2.25 A, 3.25 A
  #
  ################################################################################
  #  "First tier" - improvements: -149.44 meV to -45.88 meV
       hydro 2 p 1.7
       hydro 3 d 7.4
       hydro 3 s 6.8
  #  "Second tier" - improvements: -12.96 meV to -1.56 meV
  #     hydro 4 f 11.2
  #     ionic 2 p auto
  #     hydro 1 s 0.75
  #     hydro 4 d 8.8
  #     hydro 5 g 16.8
  #  "Third tier" - improvements: -0.58 meV to -0.05 meV
  #     hydro 3 p 6.2
  #     hydro 3 s 3.2
  #     hydro 4 f 9.6
  #     hydro 3 s 19.6
  #     hydro 4 d 8.6
  #     hydro 5 g 14.4
  # Further basis functions: -0.05 meV and below
  #     hydro 3 p 4.2
  
  -----------------------------------------------------------------------
  Completed first pass over input file control.in .
  -----------------------------------------------------------------------
  
  
  -----------------------------------------------------------------------
  Parsing geometry.in (first pass over file, find array dimensions only).
  The contents of geometry.in will be repeated verbatim below
  unless switched off by setting 'verbatim_writeout .false.' .
  in the first line of geometry.in .
  -----------------------------------------------------------------------
  
  atom 1.284723062 0.046507116 2.442730837 Al
  atom 1.312337200 1.147777800 -0.101876800 Al
  atom -0.317006185 0.833347964 -2.323354273 Al
  atom -1.718382604 -0.314118544 -2.193460677 F
  atom 2.133123392 -0.350387754 0.776941713 F
  atom 0.048096984 1.822395254 -3.796963594 F
  atom -0.359867626 1.867840081 -0.734554095 F
  atom 2.553038953 2.461577109 -0.301939844 F
  atom 1.306659823 0.055606728 -1.682269777 F
  atom 0.414444871 1.487462023 1.569482702 F
  atom 2.542428730 0.597069019 3.625142609 F
  atom -0.027269641 -1.144869259 2.838590586 F
  
  -----------------------------------------------------------------------
  Completed first pass over input file geometry.in .
  -----------------------------------------------------------------------
  

  Basic array size parameters:
  | Number of species                 :        2
  | Number of atoms                   :       12
  | Max. basis fn. angular momentum   :        2
  | Max. atomic/ionic basis occupied n:        3
  | Max. number of basis fn. types    :        3
  | Max. radial fns per species/type  :        5
  | Max. logarithmic grid size        :     1340
  | Max. radial integration grid size :       41
  | Max. angular integration grid size:      302
  | Max. angular grid division number :        8
  | Radial grid for Hartree potential :     1340
  | Number of spin channels           :        1

------------------------------------------------------------
          Reading file control.in.
------------------------------------------------------------
  XC: Using PBEsol gradient-corrected functionals.
  Spin treatment: No spin polarisation.
  Scalar relativistic treatment of kinetic energy: on-site free-atom approximation to ZORA.
  Charge =   0.000000E+00: Neutral system requested explicitly.
  Occupation type: Gaussian broadening, width =   0.100000E-01 eV.
  Using pulay charge density mixing.
  Pulay mixing - number of memorized iterations:   10
  Charge density mixing - mixing parameter:     0.5000
  Convergence accuracy of self-consistent charge density:  0.1000E-04
  Convergence accuracy of sum of eigenvalues:  0.1000E-02
  Convergence accuracy of total energy:  0.1000E-05
  Convergence accuracy of forces:  0.1000E-03
  Maximum number of s.-c. iterations  :  1500
 
  Reading configuration options for species Al                  .
  | Found nuclear charge :  13.0000
  | Found atomic mass :    26.9815386000000      amu
  | Found l_max for Hartree potential  :   4
  | Found cutoff potl. onset [A], width [A], scale factor :    3.50000    1.50000    1.00000
  | Threshold for basis-dependent cutoff potential is   0.100000E-03
  | Found data for basic radial integration grid :    41 points, outermost radius =    5.000 A
  | Found multiplier for basic radial grid :   1
  | Found angular grid specification: user-specified.
  | Specified grid contains     4 separate shells.
  | Check grid settings after all constraints further below.
  | Found free-atom valence shell :  3 s   2.000
  | Found free-atom valence shell :  3 p   1.000
  | Found free-ion valence shell :  3 s   1.000
  | Found free-ion valence shell :  2 p   6.000
  | Found ionic basis function :  3 d , default cutoff radius.
  | Found ionic basis function :  3 p , default cutoff radius.
  | Found ionic basis function :  3 s , default cutoff radius.
  Species Al                  : Missing cutoff potential type.
  Defaulting to exp(1/x)/(1-x)^2 type cutoff potential.
  Species Al: No 'logarithmic' tag. Using default grid for free atom:
  | Default logarithmic grid data [bohr] : 0.1000E-03 0.1000E+03 0.1012E+01
  | Will include ionic basis functions of  2.0-fold positive Al                   ion.
  Species Al: On-site basis accuracy parameter (for Gram-Schmidt orthonormalisation) not specified.
  Using default value basis_acc =  0.1000000E-03.
  Species Al                  : Using default innermost maximum threshold i_radial=  2 for radial functions.
  Species Al                  : Default cutoff onset for free atom density etc. : 0.35000000E+01 AA.
  Species Al                  : Basic radial grid will be enhanced according to radial_multiplier =   1, to contain    41 grid points.
 
  Reading configuration options for species F                   .
  | Found nuclear charge :   9.0000
  | Found atomic mass :    18.9984032000000      amu
  | Found l_max for Hartree potential  :   4
  | Found cutoff potl. onset [A], width [A], scale factor :    3.50000    1.50000    1.00000
  | Threshold for basis-dependent cutoff potential is   0.100000E-03
  | Found data for basic radial integration grid :    37 points, outermost radius =    5.000 A
  | Found multiplier for basic radial grid :   1
  | Found angular grid specification: user-specified.
  | Specified grid contains     4 separate shells.
  | Check grid settings after all constraints further below.
  | Found free-atom valence shell :  2 s   2.000
  | Found free-atom valence shell :  2 p   5.000
  | Found free-ion valence shell :  2 s   1.000
  | Found free-ion valence shell :  2 p   4.000
  | Found hydrogenic basis function :  2 p   1.700
  | Found hydrogenic basis function :  3 d   7.400
  | Found hydrogenic basis function :  3 s   6.800
  Species F                   : Missing cutoff potential type.
  Defaulting to exp(1/x)/(1-x)^2 type cutoff potential.
  Species F : No 'logarithmic' tag. Using default grid for free atom:
  | Default logarithmic grid data [bohr] : 0.1000E-03 0.1000E+03 0.1012E+01
  Species F : On-site basis accuracy parameter (for Gram-Schmidt orthonormalisation) not specified.
  Using default value basis_acc =  0.1000000E-03.
  Species F                   : Using default innermost maximum threshold i_radial=  2 for radial functions.
  Species F                   : Default cutoff onset for free atom density etc. : 0.35000000E+01 AA.
  Species F                   : Basic radial grid will be enhanced according to radial_multiplier =   1, to contain    37 grid points.
 
  Finished reading input file 'control.in'.
 
------------------------------------------------------------


------------------------------------------------------------
          Reading geometry description geometry.in.
------------------------------------------------------------
  | The smallest distance between any two atoms is         1.81191592 AA.
  | The first atom of this pair is atom number                      3 .
  | The second atom of this pair is atom number                     6 .
  Input structure read successfully.
  The structure contains       12 atoms,  and a total of        120.000 electrons.

  Input geometry:
  | No unit cell requested.
  | Atomic structure:
  |       Atom                x [A]            y [A]            z [A]
  |    1: Species Al            1.28472306        0.04650712        2.44273084
  |    2: Species Al            1.31233720        1.14777780       -0.10187680
  |    3: Species Al           -0.31700618        0.83334796       -2.32335427
  |    4: Species F            -1.71838260       -0.31411854       -2.19346068
  |    5: Species F             2.13312339       -0.35038775        0.77694171
  |    6: Species F             0.04809698        1.82239525       -3.79696359
  |    7: Species F            -0.35986763        1.86784008       -0.73455410
  |    8: Species F             2.55303895        2.46157711       -0.30193984
  |    9: Species F             1.30665982        0.05560673       -1.68226978
  |   10: Species F             0.41444487        1.48746202        1.56948270
  |   11: Species F             2.54242873        0.59706902        3.62514261
  |   12: Species F            -0.02726964       -1.14486926        2.83859059

 
  Finished reading input file 'control.in'.
 

------------------------------------------------------------
          Reading geometry description geometry.in.
------------------------------------------------------------
 
  Consistency checks for stacksize environment parameter are next.
 
  | Maximum stacksize for task 0: unlimited
  | Maximum stacksize for task 1: unlimited
  | Maximum stacksize for task 2: unlimited
  | Maximum stacksize for task 3: unlimited
  | Maximum stacksize for task 4: unlimited
  | Maximum stacksize for task 5: unlimited
  | Maximum stacksize for task 6: unlimited
  | Maximum stacksize for task 7: unlimited
  | Maximum stacksize for task 8: unlimited
  | Maximum stacksize for task 9: unlimited
  | Maximum stacksize for task 10: unlimited
  | Maximum stacksize for task 11: unlimited
  | Maximum stacksize for task 12: unlimited
  | Maximum stacksize for task 13: unlimited
  | Maximum stacksize for task 14: unlimited
  | Maximum stacksize for task 15: unlimited
  | Maximum stacksize for task 16: unlimited
  | Maximum stacksize for task 17: unlimited
  | Maximum stacksize for task 18: unlimited
  | Maximum stacksize for task 19: unlimited
  | Maximum stacksize for task 20: unlimited
  | Maximum stacksize for task 21: unlimited
  | Maximum stacksize for task 22: unlimited
  | Maximum stacksize for task 23: unlimited
  | Current stacksize for task 0: unlimited
  | Current stacksize for task 1: unlimited
  | Current stacksize for task 2: unlimited
  | Current stacksize for task 3: unlimited
  | Current stacksize for task 4: unlimited
  | Current stacksize for task 5: unlimited
  | Current stacksize for task 6: unlimited
  | Current stacksize for task 7: unlimited
  | Current stacksize for task 8: unlimited
  | Current stacksize for task 9: unlimited
  | Current stacksize for task 10: unlimited
  | Current stacksize for task 11: unlimited
  | Current stacksize for task 12: unlimited
  | Current stacksize for task 13: unlimited
  | Current stacksize for task 14: unlimited
  | Current stacksize for task 15: unlimited
  | Current stacksize for task 16: unlimited
  | Current stacksize for task 17: unlimited
  | Current stacksize for task 18: unlimited
  | Current stacksize for task 19: unlimited
  | Current stacksize for task 20: unlimited
  | Current stacksize for task 21: unlimited
  | Current stacksize for task 22: unlimited
  | Current stacksize for task 23: unlimited
 
  Consistency checks for the contents of control.in are next.
 
  MPI_IN_PLACE appears to work with this MPI implementation.
  | Keeping use_mpi_in_place .true. (see manual).
  Target number of points in a grid batch is not set. Defaulting to  100
  Method for grid partitioning is not set. Defaulting to parallel hash+maxmin partitioning.
  Batch size limit is not set. Defaulting to    200
  By default, will store active basis functions for each batch.
  If in need of memory, prune_basis_once .false. can be used to disable this option.
  communication_type for Hartree potential was not specified.
  Defaulting to calc_hartree .
  Pulay mixer: Number of initial linear mixing iterations not set.
  Defaulting to    0 iterations.
  Work space size for distributed Hartree potential not set.
  Defaulting to   0.200000E+03 MB.
  Algorithm-dependent basis array size parameters:
  | n_max_pulay                         :       10
  Presetting      1001 iterations before the initial mixing cycle
  is restarted anyway using the sc_init_iter criterion / keyword.
  Presetting a factor      1.000 between actual scf density residual
  and density convergence criterion sc_accuracy_rho below which sc_init_iter
  takes no effect.
  Geometry relaxation not requested: no relaxation will be performed.
  Forces evaluation will include force correction term due to incomplete self-consistency (default).
  Handling of forces: Unphysical translation and rotation will be removed from forces.
  No accuracy limit for integral partition fn. given. Defaulting to  0.1000E-14.
  No threshold value for u(r) in integrations given. Defaulting to  0.1000E-05.
  No accuracy for occupation numbers given. Defaulting to  0.1000E-12.
  No threshold value for occupation numbers given. Defaulting to  0.0000E+00.
  No accuracy for fermi level given. Defaulting to  0.1000E-19.
  Maximum # of iterations to find E_F not set. Defaulting to  200.
  Preferred method for the eigenvalue solver ('KS_method') not specified in 'control.in'.
  Calling BLACS routine to test compilation state
  Since ScaLAPACK support is enabled, defaulting to ELPA (via ELSI).
  Will not use alltoall communication since running on < 1024 CPUs.
  Threshold for basis singularities not set.
  Default threshold for basis singularities:  0.1000E-04
  partition_type (choice of integration weights) for integrals was not specified.
  | Using a version of the partition function of Stratmann and coworkers ('stratmann_sparse').
  | At each grid point, the set of atoms used to build the partition table is smoothly restricted to
  | only those atoms whose free-atom density would be non-zero at that grid point.
  Partitioning for Hartree potential was not defined. Using partition_type for integrals.
  | Adjusted default value of keyword multip_moments_threshold to:       0.10000000E-11
  | This value may affect high angular momentum components of the Hartree potential in periodic systems.
  No q(lm)/r^(l+1) cutoff set for long-range Hartree potential.
  | Using default value of  0.100000E-09 .
  | Verify using the multipole_threshold keyword.
  Defaulting to new monopole extrapolation.
  Density update method: automatic selection selected.
  Charge integration errors on the 3D integration grid will be compensated
  by explicit normalization and distribution of residual charges.
  Use the "compensate_multipole_errors" flag to change this behaviour.
  Set 'collect_eigenvectors' to be '.true.' for use_density_matrix .false.
 
  Consistency checks for the contents of geometry.in are next.
 
  Number of empty states per atom not set in control.in - providing a guess from actual geometry.
  | Total number of empty states used during s.c.f. cycle:       36
  If you use a very high smearing, use empty_states (per atom!) in control.in to increase this value.

  Structure-dependent array size parameters: 
  | Maximum number of distinct radial functions  :       14
  | Maximum number of basis functions            :      180
  | Number of Kohn-Sham states (occupied + empty):       96
------------------------------------------------------------

------------------------------------------------------------
          Preparing all fixed parts of the calculation.
------------------------------------------------------------
  Determining machine precision:
    2.225073858507201E-308
  Setting up grids for atomic and cluster calculations.

  Creating wave function, potential, and density for free atoms.

  Species: Al

  List of occupied orbitals and eigenvalues:
    n    l              occ      energy [Ha]    energy [eV]
    1    0           2.0000       -55.621123     -1513.5278
    2    0           2.0000        -3.957030      -107.6763
    3    0           2.0000        -0.272233        -7.4078
    2    1           6.0000        -2.540949       -69.1427
    3    1           1.0000        -0.083300        -2.2667


  Species: F

  List of occupied orbitals and eigenvalues:
    n    l              occ      energy [Ha]    energy [eV]
    1    0           2.0000       -24.399611      -663.9472
    2    0           2.0000        -1.098702       -29.8972
    2    1           5.0000        -0.408210       -11.1080


  Adding cutoff potential to free-atom effective potential.
  Creating fixed part of basis set: Ionic, confined, hydrogenic.
 
  Al                   ion:

  List of free ionic orbitals and eigenvalues:
    n    l      energy [Ha]    energy [eV]
    1    0       -56.418846     -1535.2349
    2    0        -4.732717      -128.7838
    3    0        -0.872690       -23.7471
    2    1        -3.317230       -90.2664


  List of ionic basis orbitals and eigenvalues:
    n    l      energy [Ha]    energy [eV]    outer radius [A]
    3    2        -0.346815        -9.4373       4.594041
    3    1        -0.631870       -17.1940       4.538221
    3    0        -0.872657       -23.7462       4.538221

 
  F                    hydrogenic:
 
  List of hydrogenic basis orbitals: 
    n    l      effective z      eigenvalue [eV]  inner max. [A]     outer max. [A]     outer radius [A]   
    2    1         1.700000        -9.7616           1.243167           1.243167           4.598524
    3    2         7.400000       -82.7828           0.642437           0.642437           3.305741
    3    0         6.800000       -69.9026           0.057798           1.022307           3.781556
 
  Creating atomic-like basis functions for current effective potential.

  Species Al                  :

  List of atomic basis orbitals and eigenvalues:
    n    l      energy [Ha]    energy [eV]    outer radius [A]
    1    0       -55.621123     -1513.5278       0.850197
    2    0        -3.957030      -107.6763       3.144911
    3    0        -0.272233        -7.4078       4.594041
    2    1        -2.540949       -69.1427       3.731966
    3    1        -0.083300        -2.2667       4.594041


  Species F                   :

  List of atomic basis orbitals and eigenvalues:
    n    l      energy [Ha]    energy [eV]    outer radius [A]
    1    0       -24.399611      -663.9472       1.258458
    2    0        -1.098702       -29.8972       4.325857
    2    1        -0.408210       -11.1080       4.487453

  Assembling full basis from fixed parts.
  | Species Al :   atomic orbital   1 s accepted.
  | Species Al :   atomic orbital   2 s accepted.
  | Species Al :    ionic orbital   3 s accepted.
  | Species Al :   atomic orbital   3 s accepted.
  | Species Al :   atomic orbital   2 p accepted.
  | Species Al :    ionic orbital   3 p accepted.
  | Species Al :   atomic orbital   3 p accepted.
  | Species Al :    ionic orbital   3 d accepted.
  | Species F :   atomic orbital   1 s accepted.
  | Species F :    hydro orbital   3 s accepted.
  | Species F :   atomic orbital   2 s accepted.
  | Species F :   atomic orbital   2 p accepted.
  | Species F :    hydro orbital   2 p accepted.
  | Species F :    hydro orbital   3 d accepted.
 
  Basis size parameters after reduction:
  | Total number of radial functions:       14
  | Total number of basis functions :      180
 
  Per-task memory consumption for arrays in subroutine allocate_ext:
  |           4.807768MB.
  Testing on-site integration grid accuracy.
  |  Species  Function  <phi|h_atom|phi> (log., in eV)  <phi|h_atom|phi> (rad., in eV)
           1        1              -1513.5277717935              -1513.5271881332
           1        2               -107.6762691836               -107.6762662489
           1        3                 -6.9467474784                 -6.9471269649
           1        4                  5.5771951849                  5.4862107220 ***
           1        5                -69.1427313144                -69.1427312731
           1        6                 -1.5197375330                 -1.5230432022
           1        7                  6.8210948310                  6.5529872240 ***
           1        8                  4.3216540965                  4.2851170187 ***
           2        9               -663.9471986398               -663.9470363334
           2       10                 16.8514011578                 16.8512525338
           2       11                -28.4490593856                -28.4490661472
           2       12                -11.1080115307                -11.1080620173
           2       13                  7.1940182175                  7.1685154137
           2       14                 44.8544281765                 44.8543763625
 * Note: Onsite integrals marked "***" above are less accurate than
 * onsite_accuracy_threshold =    0.03000 eV. Usually, this is harmless.
 * When in doubt, tighten the "radial" and/or "radial_multiplier" flags to check.

  Preparing densities etc. for the partition functions (integrals / Hartree potential).

  Preparations completed.
  max(cpu_time)          :      0.183 s.
  Wall clock time (cpu1) :      0.186 s.
------------------------------------------------------------

------------------------------------------------------------
          Begin self-consistency loop: Initialization.

          Date     :  20220517, Time     :  110541.864
------------------------------------------------------------

  Initializing index lists of integration centers etc. from given atomic structure:
  | Number of centers in hartree potential         :        12
  | Number of centers in hartree multipole         :        12
  | Number of centers in electron density summation:        12
  | Number of centers in basis integrals           :        12
  | Number of centers in integrals                 :        12
  | Number of centers in hamiltonian               :        12
  * Using 24 tasks for Scalapack Eigenvalue solver.
  Detailed listing of tasks and assigned k-points:
  (for non-periodic systems, the "k-point" denotes an internal label only)
   Task     0 k-point     1 on node-k98e-003
   Task     1 k-point     1 on node-k98e-003
   Task     2 k-point     1 on node-k98e-003
   Task     3 k-point     1 on node-k98e-003
   Task     4 k-point     1 on node-k98e-003
   Task     5 k-point     1 on node-k98e-003
   Task     6 k-point     1 on node-k98e-003
   Task     7 k-point     1 on node-k98e-003
   Task     8 k-point     1 on node-k98e-003
   Task     9 k-point     1 on node-k98e-003
   Task    10 k-point     1 on node-k98e-003
   Task    11 k-point     1 on node-k98e-003
   Task    12 k-point     1 on node-k98e-003
   Task    13 k-point     1 on node-k98e-003
   Task    14 k-point     1 on node-k98e-003
   Task    15 k-point     1 on node-k98e-003
   Task    16 k-point     1 on node-k98e-003
   Task    17 k-point     1 on node-k98e-003
   Task    18 k-point     1 on node-k98e-003
   Task    19 k-point     1 on node-k98e-003
   Task    20 k-point     1 on node-k98e-003
   Task    21 k-point     1 on node-k98e-003
   Task    22 k-point     1 on node-k98e-003
   Task    23 k-point     1 on node-k98e-003
  Tasks:    24 split into      6 X      4 BLACS grid
  Calculating block size based on n_basis =          180  max_nprow =            6  max_npcol =            4
  ScaLAPACK block size set to:           16
  Allocating        0.012 MB for ovlp
  Allocating        0.012 MB for ham
  Allocating        0.012 MB for eigenvec
  Required Scalapack workspace - INTEGER:            1  REAL:             1
  Partitioning the integration grid into batches with parallel hashing+maxmin method.
  | Number of batches:     1086
  | Maximal batch size:     195
  | Minimal batch size:      20
  | Average batch size:      84.641
  | Standard deviation of batch sizes:      23.672

  Integration load balanced across    24 MPI tasks.
  Work distribution over tasks is as follows:
  Task     0 has       3822 integration points.
  Task     1 has       3775 integration points.
  Task     2 has       3843 integration points.
  Task     3 has       3778 integration points.
  Task     4 has       3826 integration points.
  Task     5 has       3838 integration points.
  Task     6 has       3801 integration points.
  Task     7 has       3765 integration points.
  Task     8 has       3833 integration points.
  Task     9 has       3866 integration points.
  Task    10 has       3936 integration points.
  Task    11 has       3780 integration points.
  Task    12 has       3843 integration points.
  Task    13 has       3933 integration points.
  Task    14 has       3823 integration points.
  Task    15 has       3880 integration points.
  Task    16 has       3832 integration points.
  Task    17 has       3846 integration points.
  Task    18 has       3839 integration points.
  Task    19 has       3785 integration points.
  Task    20 has       3829 integration points.
  Task    21 has       3799 integration points.
  Task    22 has       3830 integration points.
  Task    23 has       3818 integration points.
  Initializing partition tables, free-atom densities, potentials, etc. across the integration grid (initialize_grid_storage).
  | initialize_grid_storage: Actual outermost partition radius vs. multipole_radius_free
  | (-- VB: in principle, multipole_radius_free should be larger, hence this output)
  | Species        1: Confinement radius =              4.999999999999999 AA, multipole_radius_free =              5.004487022111096 AA.
  | Species        1: outer_partition_radius set to              5.004487022111096 AA .
  | Species        2: Confinement radius =              4.999999999999999 AA, multipole_radius_free =              5.009370088163274 AA.
  | Species        2: outer_partition_radius set to              5.009370088163274 AA .
  | The sparse table of interatomic distances needs          1.64 kbyte instead of         1.15 kbyte of memory.
  | Using the partition_type stratmann_smoother will reduce your memory usage.
  | Net number of integration points:    91920
  | of which are non-zero points    :    85880
  Renormalizing the initial density to the exact electron count on the 3D integration grid.
  | Initial density: Formal number of electrons (from input files) :     120.0000000000
  | Integrated number of electrons on 3D grid     :     119.9999242683
  | Charge integration error                      :      -0.0000757317
  | Normalization factor for density and gradient :       1.0000006311
  Renormalizing the free-atom superposition density to the exact electron count on the 3D integration grid.
  | Formal number of electrons (from input files) :     120.0000000000
  | Integrated number of electrons on 3D grid     :     119.9999242683
  | Charge integration error                      :      -0.0000757317
  | Normalization factor for density and gradient :       1.0000006311
  Obtaining max. number of non-zero basis functions in each batch (get_n_compute_maxes).
  | Maximal number of non-zero basis functions:      163 in task     0
  | Maximal number of non-zero basis functions:      161 in task     1
  | Maximal number of non-zero basis functions:      163 in task     2
  | Maximal number of non-zero basis functions:      165 in task     3
  | Maximal number of non-zero basis functions:      159 in task     4
  | Maximal number of non-zero basis functions:      165 in task     5
  | Maximal number of non-zero basis functions:      166 in task     6
  | Maximal number of non-zero basis functions:      161 in task     7
  | Maximal number of non-zero basis functions:      158 in task     8
  | Maximal number of non-zero basis functions:      165 in task     9
  | Maximal number of non-zero basis functions:      159 in task    10
  | Maximal number of non-zero basis functions:      165 in task    11
  | Maximal number of non-zero basis functions:      159 in task    12
  | Maximal number of non-zero basis functions:      159 in task    13
  | Maximal number of non-zero basis functions:      161 in task    14
  | Maximal number of non-zero basis functions:      161 in task    15
  | Maximal number of non-zero basis functions:      159 in task    16
  | Maximal number of non-zero basis functions:      165 in task    17
  | Maximal number of non-zero basis functions:      159 in task    18
  | Maximal number of non-zero basis functions:      159 in task    19
  | Maximal number of non-zero basis functions:      165 in task    20
  | Maximal number of non-zero basis functions:      159 in task    21
  | Maximal number of non-zero basis functions:      160 in task    22
  | Maximal number of non-zero basis functions:      163 in task    23
  Selecting the method for density update.
  Loop over occupied states selected for charge density update.
  Allocating        0.132 MB for KS_eigenvector
  Integrating Hamiltonian matrix: batch-based integration.
  Time summed over all CPUs for integration: real work        0.686 s, elapsed        0.735 s
  Integrating overlap matrix.
  Time summed over all CPUs for integration: real work        0.262 s, elapsed        0.290 s
  Deallocating overlap matrix.

  Updating Kohn-Sham eigenvalues and eigenvectors using ELSI and the ELPA eigensolver.
  Overlap matrix is not singular
  | Lowest and highest eigenvalues :  0.3422E-02,  0.4863E+01
  Finished singularity check of overlap matrix
  | Time :     0.019 s
  Starting ELPA eigensolver
  Finished Cholesky decomposition
  | Time :     0.013 s
  Finished transformation to standard eigenproblem
  | Time :     0.008 s
  Finished solving standard eigenproblem
  | Time :     0.012 s
  Finished back-transformation of eigenvectors
  | Time :     0.002 s

  Obtaining occupation numbers and chemical potential using ELSI.
  | Chemical potential (Fermi level):    -7.65442933 eV
  Writing Kohn-Sham eigenvalues.

  State    Occupation    Eigenvalue [Ha]    Eigenvalue [eV]
      1       2.00000         -55.485759        -1509.84431
      2       2.00000         -55.484029        -1509.79723
      3       2.00000         -55.484028        -1509.79723
      4       2.00000         -24.360127         -662.87278
      5       2.00000         -24.360127         -662.87277
      6       2.00000         -24.359294         -662.85011
      7       2.00000         -24.359294         -662.85011
      8       2.00000         -24.341046         -662.35356
      9       2.00000         -24.341046         -662.35356
     10       2.00000         -24.340582         -662.34094
     11       2.00000         -24.340582         -662.34094
     12       2.00000         -24.340335         -662.33423
     13       2.00000          -3.951418         -107.52355
     14       2.00000          -3.949130         -107.46129
     15       2.00000          -3.949129         -107.46126
     16       2.00000          -2.543969          -69.22491
     17       2.00000          -2.543196          -69.20387
     18       2.00000          -2.542776          -69.19245
     19       2.00000          -2.541591          -69.16020
     20       2.00000          -2.541587          -69.16010
     21       2.00000          -2.541486          -69.15735
     22       2.00000          -2.541470          -69.15692
     23       2.00000          -2.539881          -69.11367
     24       2.00000          -2.539880          -69.11364
     25       2.00000          -1.191214          -32.41458
     26       2.00000          -1.180945          -32.13514
     27       2.00000          -1.178321          -32.06374
     28       2.00000          -1.170270          -31.84466
     29       2.00000          -1.150551          -31.30809
     30       2.00000          -1.150417          -31.30444
     31       2.00000          -1.148665          -31.25676
     32       2.00000          -1.148109          -31.24163
     33       2.00000          -1.148099          -31.24137
     34       2.00000          -0.556670          -15.14777
     35       2.00000          -0.549760          -14.95974
     36       2.00000          -0.538909          -14.66445
     37       2.00000          -0.532959          -14.50255
     38       2.00000          -0.515076          -14.01593
     39       2.00000          -0.504536          -13.72914
     40       2.00000          -0.497234          -13.53043
     41       2.00000          -0.496251          -13.50367
     42       2.00000          -0.493288          -13.42306
     43       2.00000          -0.486982          -13.25144
     44       2.00000          -0.485021          -13.19810
     45       2.00000          -0.483106          -13.14598
     46       2.00000          -0.480502          -13.07514
     47       2.00000          -0.476675          -12.97100
     48       2.00000          -0.475836          -12.94815
     49       2.00000          -0.472293          -12.85173
     50       2.00000          -0.465961          -12.67946
     51       2.00000          -0.455501          -12.39480
     52       2.00000          -0.454939          -12.37953
     53       2.00000          -0.453882          -12.35075
     54       2.00000          -0.451925          -12.29751
     55       2.00000          -0.450998          -12.27228
     56       2.00000          -0.450017          -12.24557
     57       2.00000          -0.448708          -12.20996
     58       2.00000          -0.448037          -12.19171
     59       2.00000          -0.447528          -12.17786
     60       2.00000          -0.446375          -12.14649
     61       0.00000          -0.136474           -3.71364
     62       0.00000          -0.107241           -2.91819
     63       0.00000          -0.061269           -1.66721
     64       0.00000          -0.028303           -0.77015
     65       0.00000          -0.020618           -0.56105
     66       0.00000          -0.009150           -0.24899
     67       0.00000          -0.003940           -0.10720
     68       0.00000           0.039810            1.08330
     69       0.00000           0.048476            1.31910
     70       0.00000           0.065675            1.78710
     71       0.00000           0.083101            2.26129
     72       0.00000           0.120310            3.27381
     73       0.00000           0.144188            3.92356
     74       0.00000           0.153116            4.16649
     75       0.00000           0.172332            4.68938
     76       0.00000           0.173806            4.72950
     77       0.00000           0.175608            4.77853
     78       0.00000           0.180464            4.91067
     79       0.00000           0.191220            5.20336
     80       0.00000           0.202350            5.50623
     81       0.00000           0.206883            5.62957
     82       0.00000           0.215025            5.85112
     83       0.00000           0.224889            6.11954
     84       0.00000           0.232991            6.34001
     85       0.00000           0.251088            6.83246
     86       0.00000           0.263312            7.16507
     87       0.00000           0.272651            7.41921
     88       0.00000           0.273720            7.44831
     89       0.00000           0.283295            7.70884
     90       0.00000           0.290688            7.91001
     91       0.00000           0.296277            8.06211
     92       0.00000           0.304883            8.29628
     93       0.00000           0.337921            9.19531
     94       0.00000           0.347397            9.45316
     95       0.00000           0.363963            9.90394
     96       0.00000           0.373303           10.15810

  Highest occupied state (VBM) at    -12.14649137 eV
  | Occupation number:      2.00000000

  Lowest unoccupied state (CBM) at    -3.71364002 eV
  | Occupation number:      0.00000000

  Overall HOMO-LUMO gap:      8.43285135 eV.
  Calculating total energy contributions from superposition of free atom densities.

  Total energy components:
  | Sum of eigenvalues            :        -887.61463756 Ha      -24153.22319035 eV
  | XC energy correction          :        -144.33787545 Ha       -3927.63342677 eV
  | XC potential correction       :         187.93575508 Ha        5113.99209283 eV
  | Free-atom electrostatic energy:        -781.34715282 Ha      -21261.53780335 eV
  | Hartree energy correction     :           0.00000000 Ha           0.00000000 eV
  | Entropy correction            :           0.00000000 Ha           0.00000000 eV
  | ---------------------------
  | Total energy                  :       -1625.36391074 Ha      -44228.40232763 eV
  | Total energy, T -> 0          :       -1625.36391074 Ha      -44228.40232763 eV  <-- do not rely on this value for anything but (periodic) metals
  | Electronic free energy        :       -1625.36391074 Ha      -44228.40232763 eV

  Derived energy quantities:
  | Kinetic energy                :        1627.61643184 Ha       44289.69654519 eV
  | Electrostatic energy          :       -3108.64246713 Ha      -84590.46544606 eV
  | Energy correction for multipole
  | error in Hartree potential    :           0.00000000 Ha           0.00000000 eV
  | Sum of eigenvalues per atom                           :       -2012.76859920 eV
  | Total energy (T->0) per atom                          :       -3685.70019397 eV  <-- do not rely on this value for anything but (periodic) metals
  | Electronic free energy per atom                       :       -3685.70019397 eV
  Initialize hartree_potential_storage
  Max. number of atoms included in rho_multipole:           12

  End scf initialization - timings             :  max(cpu_time)    wall_clock(cpu1)
  | Time for scf. initialization                :        0.184 s           0.185 s
  | Boundary condition initialization           :        0.000 s           0.000 s
  | Integration                                 :        0.049 s           0.049 s
  | Solution of K.-S. eqns.                     :        0.060 s           0.061 s
  | Grid partitioning                           :        0.041 s           0.041 s
  | Preloading free-atom quantities on grid     :        0.016 s           0.016 s
  | Free-atom superposition energy              :        0.006 s           0.006 s
  | Total energy evaluation                     :        0.000 s           0.000 s

  Partial memory accounting:
  | Current value for overall tracked memory usage:
  |   Minimum:        0.273 MB (on task 23)
  |   Maximum:        0.292 MB (on task  0)
  |   Average:        0.287 MB
  | Peak value for overall tracked memory usage:
  |   Minimum:        1.309 MB (on task 21 after allocating wave)
  |   Maximum:        1.371 MB (on task  6 after allocating wave)
  |   Average:        1.336 MB
  | Largest tracked array allocation so far:
  |   Minimum:        0.235 MB (H_times_psi on task  8)
  |   Maximum:        0.443 MB (all_coords on task 10)
  |   Average:        0.263 MB
  Note:  These values currently only include a subset of arrays which are explicitly tracked.
  The "true" memory usage will be greater.
------------------------------------------------------------
  Evaluating new KS density.
  Integration grid: deviation in total charge (<rho> - N_e) =   1.421085E-14

  Time for density update prior                :  max(cpu_time)    wall_clock(cpu1)
  | self-consistency iterative process          :        0.031 s           0.032 s

------------------------------------------------------------
          Begin self-consistency iteration #    1

  Date     :  20220517, Time     :  110542.082
------------------------------------------------------------
  Pulay mixing of updated and previous charge densities.
  Renormalizing the density to the exact electron count on the 3D integration grid.
  | Formal number of electrons (from input files) :     120.0000000000
  | Integrated number of electrons on 3D grid     :     120.0000000000
  | Charge integration error                      :      -0.0000000000
  | Normalization factor for density and gradient :       1.0000000000

  Evaluating partitioned Hartree potential by multipole expansion.
  | Original multipole sum: apparent total charge =  -0.116864E-12
  | Sum of charges compensated after spline to logarithmic grids =   0.982574E-04
  | Analytical far-field extrapolation by fixed multipoles:
  | Hartree multipole sum: apparent total charge =  -0.117307E-12
  Summing up the Hartree potential.
  Time summed over all CPUs for potential: real work        0.381 s, elapsed        0.397 s
  | RMS charge density error from multipole expansion :   0.107232E-01

  Integrating Hamiltonian matrix: batch-based integration.
  Time summed over all CPUs for integration: real work        0.639 s, elapsed        0.685 s

  Updating Kohn-Sham eigenvalues and eigenvectors using ELSI and the ELPA eigensolver.
  Starting ELPA eigensolver
  Finished transformation to standard eigenproblem
  | Time :     0.007 s
  Finished solving standard eigenproblem
  | Time :     0.018 s
  Finished back-transformation of eigenvectors
  | Time :     0.004 s

  Obtaining occupation numbers and chemical potential using ELSI.
  | Chemical potential (Fermi level):    -7.73324267 eV
  Writing Kohn-Sham eigenvalues.

  State    Occupation    Eigenvalue [Ha]    Eigenvalue [eV]
      1       2.00000         -55.656735        -1514.49681
      2       2.00000         -55.640849        -1514.06454
      3       2.00000         -55.640846        -1514.06446
      4       2.00000         -24.231964         -659.38530
      5       2.00000         -24.231956         -659.38506
      6       2.00000         -24.223144         -659.14529
      7       2.00000         -24.223142         -659.14523
      8       2.00000         -24.073817         -655.08189
      9       2.00000         -24.073817         -655.08189
     10       2.00000         -24.072371         -655.04254
     11       2.00000         -24.072370         -655.04253
     12       2.00000         -24.068447         -654.93578
     13       2.00000          -4.096227         -111.46400
     14       2.00000          -4.080285         -111.03019
     15       2.00000          -4.080283         -111.03014
     16       2.00000          -2.690481          -73.21173
     17       2.00000          -2.688301          -73.15238
     18       2.00000          -2.687896          -73.14136
     19       2.00000          -2.673848          -72.75912
     20       2.00000          -2.673845          -72.75902
     21       2.00000          -2.673482          -72.74915
     22       2.00000          -2.673479          -72.74906
     23       2.00000          -2.671436          -72.69348
     24       2.00000          -2.671435          -72.69346
     25       2.00000          -1.161668          -31.61060
     26       2.00000          -1.150417          -31.30445
     27       2.00000          -1.144198          -31.13521
     28       2.00000          -1.133725          -30.85022
     29       2.00000          -1.021432          -27.79459
     30       2.00000          -1.021390          -27.79345
     31       2.00000          -1.016981          -27.67345
     32       2.00000          -1.016963          -27.67297
     33       2.00000          -1.015526          -27.63387
     34       2.00000          -0.545063          -14.83192
     35       2.00000          -0.532884          -14.50050
     36       2.00000          -0.519784          -14.14405
     37       2.00000          -0.513027          -13.96016
     38       2.00000          -0.486501          -13.23836
     39       2.00000          -0.469991          -12.78912
     40       2.00000          -0.465397          -12.66409
     41       2.00000          -0.447151          -12.16761
     42       2.00000          -0.446573          -12.15187
     43       2.00000          -0.443537          -12.06926
     44       2.00000          -0.438729          -11.93841
     45       2.00000          -0.424999          -11.56481
     46       2.00000          -0.399717          -10.87686
     47       2.00000          -0.394114          -10.72440
     48       2.00000          -0.375392          -10.21494
     49       2.00000          -0.367233           -9.99293
     50       2.00000          -0.367130           -9.99011
     51       2.00000          -0.335829           -9.13837
     52       2.00000          -0.335366           -9.12576
     53       2.00000          -0.334277           -9.09615
     54       2.00000          -0.332659           -9.05211
     55       2.00000          -0.324743           -8.83671
     56       2.00000          -0.324723           -8.83616
     57       2.00000          -0.324212           -8.82226
     58       2.00000          -0.322740           -8.78220
     59       2.00000          -0.320940           -8.73322
     60       2.00000          -0.320517           -8.72171
     61       0.00000          -0.146624           -3.98984
     62       0.00000          -0.104466           -2.84265
     63       0.00000          -0.069022           -1.87817
     64       0.00000          -0.041015           -1.11608
     65       0.00000          -0.032823           -0.89317
     66       0.00000          -0.017829           -0.48515
     67       0.00000          -0.011013           -0.29968
     68       0.00000           0.027617            0.75150
     69       0.00000           0.033443            0.91004
     70       0.00000           0.061055            1.66139
     71       0.00000           0.063690            1.73310
     72       0.00000           0.107539            2.92629
     73       0.00000           0.137561            3.74322
     74       0.00000           0.144776            3.93957
     75       0.00000           0.169563            4.61403
     76       0.00000           0.171684            4.67175
     77       0.00000           0.177687            4.83511
     78       0.00000           0.180403            4.90900
     79       0.00000           0.195710            5.32555
     80       0.00000           0.195734            5.32620
     81       0.00000           0.203429            5.53559
     82       0.00000           0.216009            5.87789
     83       0.00000           0.216171            5.88230
     84       0.00000           0.226689            6.16853
     85       0.00000           0.240476            6.54368
     86       0.00000           0.247334            6.73029
     87       0.00000           0.250197            6.80821
     88       0.00000           0.261462            7.11475
     89       0.00000           0.266165            7.24273
     90       0.00000           0.273556            7.44383
     91       0.00000           0.296667            8.07272
     92       0.00000           0.307062            8.35558
     93       0.00000           0.323014            8.78965
     94       0.00000           0.358296            9.74974
     95       0.00000           0.369718           10.06054
     96       0.00000           0.372400           10.13352

  Highest occupied state (VBM) at     -8.72170661 eV
  | Occupation number:      2.00000000

  Lowest unoccupied state (CBM) at    -3.98984350 eV
  | Occupation number:      0.00000000

  Overall HOMO-LUMO gap:      4.73186311 eV.

  Total energy components:
  | Sum of eigenvalues            :        -882.33197113 Ha      -24009.47452312 eV
  | XC energy correction          :        -145.66190855 Ha       -3963.66220066 eV
  | XC potential correction       :         189.67630596 Ha        5161.35489189 eV
  | Free-atom electrostatic energy:        -781.34715282 Ha      -21261.53780335 eV
  | Hartree energy correction     :          -5.49151739 Ha        -149.43179110 eV
  | Entropy correction            :           0.00000000 Ha           0.00000000 eV
  | ---------------------------
  | Total energy                  :       -1625.15624394 Ha      -44222.75142634 eV
  | Total energy, T -> 0          :       -1625.15624394 Ha      -44222.75142634 eV  <-- do not rely on this value for anything but (periodic) metals
  | Electronic free energy        :       -1625.15624394 Ha      -44222.75142634 eV

  Derived energy quantities:
  | Kinetic energy                :        1633.94022736 Ha       44461.77577665 eV
  | Electrostatic energy          :       -3113.43456274 Ha      -84720.86500233 eV
  | Energy correction for multipole
  | error in Hartree potential    :           0.04179404 Ha           1.13727380 eV
  | Sum of eigenvalues per atom                           :       -2000.78954359 eV
  | Total energy (T->0) per atom                          :       -3685.22928553 eV  <-- do not rely on this value for anything but (periodic) metals
  | Electronic free energy per atom                       :       -3685.22928553 eV
  Evaluating new KS density.
  Integration grid: deviation in total charge (<rho> - N_e) =   0.000000E+00

  Self-consistency convergence accuracy:
  | Change of charge density      :  0.5960E+00
  | Change of sum of eigenvalues  :  0.1437E+03 eV
  | Change of total energy        :  0.5651E+01 eV


------------------------------------------------------------
  End self-consistency iteration #     1       :  max(cpu_time)    wall_clock(cpu1)
  | Time for this iteration                     :        0.123 s           0.124 s
  | Charge density update                       :        0.029 s           0.029 s
  | Density mixing                              :        0.001 s           0.000 s
  | Hartree multipole update                    :        0.011 s           0.012 s
  | Hartree multipole summation                 :        0.020 s           0.021 s
  | Integration                                 :        0.029 s           0.029 s
  | Solution of K.-S. eqns.                     :        0.030 s           0.030 s
  | Total energy evaluation                     :        0.001 s           0.001 s

  Partial memory accounting:
  | Current value for overall tracked memory usage:
  |   Minimum:        0.273 MB (on task 23)
  |   Maximum:        0.292 MB (on task  0)
  |   Average:        0.287 MB
  | Peak value for overall tracked memory usage:
  |   Minimum:        1.309 MB (on task 21 after allocating wave)
  |   Maximum:        1.371 MB (on task  6 after allocating wave)
  |   Average:        1.336 MB
  | Largest tracked array allocation so far:
  |   Minimum:        0.705 MB (gradient_basis_wave on task  8)
  |   Maximum:        0.741 MB (gradient_basis_wave on task  6)
  |   Average:        0.721 MB
  Note:  These values currently only include a subset of arrays which are explicitly tracked.
  The "true" memory usage will be greater.
------------------------------------------------------------

------------------------------------------------------------
          Begin self-consistency iteration #    2

  Date     :  20220517, Time     :  110542.211
------------------------------------------------------------
  Pulay mixing of updated and previous charge densities.
  Renormalizing the density to the exact electron count on the 3D integration grid.
  | Formal number of electrons (from input files) :     120.0000000000
  | Integrated number of electrons on 3D grid     :     120.0000000000
  | Charge integration error                      :       0.0000000000
  | Normalization factor for density and gradient :       1.0000000000

  Evaluating partitioned Hartree potential by multipole expansion.
  | Original multipole sum: apparent total charge =  -0.887978E-14
  | Sum of charges compensated after spline to logarithmic grids =   0.601975E-04
  | Analytical far-field extrapolation by fixed multipoles:
  | Hartree multipole sum: apparent total charge =  -0.814185E-14
  Summing up the Hartree potential.
  Time summed over all CPUs for potential: real work        0.379 s, elapsed        0.402 s
  | RMS charge density error from multipole expansion :   0.125908E-01

  Integrating Hamiltonian matrix: batch-based integration.
  Time summed over all CPUs for integration: real work        0.638 s, elapsed        0.672 s

  Updating Kohn-Sham eigenvalues and eigenvectors using ELSI and the ELPA eigensolver.
  Starting ELPA eigensolver
  Finished transformation to standard eigenproblem
  | Time :     0.006 s
  Finished solving standard eigenproblem
  | Time :     0.012 s
  Finished back-transformation of eigenvectors
  | Time :     0.000 s

  Obtaining occupation numbers and chemical potential using ELSI.
  | Chemical potential (Fermi level):    -7.79914060 eV
  Highest occupied state (VBM) at     -9.90198676 eV
  | Occupation number:      2.00000000

  Lowest unoccupied state (CBM) at    -4.19382249 eV
  | Occupation number:      0.00000000

  Overall HOMO-LUMO gap:      5.70816427 eV.

  Checking to see if s.c.f. parameters should be adjusted.

  Total energy components:
  | Sum of eigenvalues            :        -885.44401597 Ha      -24094.15757173 eV
  | XC energy correction          :        -145.17161702 Ha       -3950.32068922 eV
  | XC potential correction       :         189.03122298 Ha        5143.80129091 eV
  | Free-atom electrostatic energy:        -781.34715282 Ha      -21261.53780335 eV
  | Hartree energy correction     :          -2.16155382 Ha         -58.81887221 eV
  | Entropy correction            :           0.00000000 Ha           0.00000000 eV
  | ---------------------------
  | Total energy                  :       -1625.09311665 Ha      -44221.03364560 eV
  | Total energy, T -> 0          :       -1625.09311665 Ha      -44221.03364560 eV  <-- do not rely on this value for anything but (periodic) metals
  | Electronic free energy        :       -1625.09311665 Ha      -44221.03364560 eV

  Derived energy quantities:
  | Kinetic energy                :        1630.07961380 Ha       44356.72313675 eV
  | Electrostatic energy          :       -3110.00111344 Ha      -84627.43609313 eV
  | Energy correction for multipole
  | error in Hartree potential    :           0.04599008 Ha           1.25145377 eV
  | Sum of eigenvalues per atom                           :       -2007.84646431 eV
  | Total energy (T->0) per atom                          :       -3685.08613713 eV  <-- do not rely on this value for anything but (periodic) metals
  | Electronic free energy per atom                       :       -3685.08613713 eV
  Evaluating new KS density.
  Integration grid: deviation in total charge (<rho> - N_e) =   0.000000E+00

  Self-consistency convergence accuracy:
  | Change of charge density      :  0.4718E+00
  | Change of sum of eigenvalues  : -0.8468E+02 eV
  | Change of total energy        :  0.1718E+01 eV


------------------------------------------------------------
  End self-consistency iteration #     2       :  max(cpu_time)    wall_clock(cpu1)
  | Time for this iteration                     :        0.103 s           0.103 s
  | Charge density update                       :        0.027 s           0.027 s
  | Density mixing                              :        0.007 s           0.007 s
  | Hartree multipole update                    :        0.001 s           0.001 s
  | Hartree multipole summation                 :        0.018 s           0.019 s
  | Integration                                 :        0.030 s           0.030 s
  | Solution of K.-S. eqns.                     :        0.018 s           0.018 s
  | Total energy evaluation                     :        0.000 s           0.000 s

  Partial memory accounting:
  | Current value for overall tracked memory usage:
  |   Minimum:        0.274 MB (on task 23)
  |   Maximum:        0.293 MB (on task  0)
  |   Average:        0.288 MB
  | Peak value for overall tracked memory usage:
  |   Minimum:        1.309 MB (on task 21 after allocating wave)
  |   Maximum:        1.371 MB (on task  6 after allocating wave)
  |   Average:        1.336 MB
  | Largest tracked array allocation so far:
  |   Minimum:        0.705 MB (gradient_basis_wave on task  8)
  |   Maximum:        0.741 MB (gradient_basis_wave on task  6)
  |   Average:        0.721 MB
  Note:  These values currently only include a subset of arrays which are explicitly tracked.
  The "true" memory usage will be greater.
------------------------------------------------------------

------------------------------------------------------------
          Begin self-consistency iteration #    3

  Date     :  20220517, Time     :  110542.320
------------------------------------------------------------
  Pulay mixing of updated and previous charge densities.
  Renormalizing the density to the exact electron count on the 3D integration grid.
  | Formal number of electrons (from input files) :     120.0000000000
  | Integrated number of electrons on 3D grid     :     120.0000000000
  | Charge integration error                      :       0.0000000000
  | Normalization factor for density and gradient :       1.0000000000

  Evaluating partitioned Hartree potential by multipole expansion.
  | Original multipole sum: apparent total charge =   0.590346E-15
  | Sum of charges compensated after spline to logarithmic grids =   0.775444E-04
  | Analytical far-field extrapolation by fixed multipoles:
  | Hartree multipole sum: apparent total charge =   0.590346E-15
  Summing up the Hartree potential.
  Time summed over all CPUs for potential: real work        0.379 s, elapsed        0.394 s
  | RMS charge density error from multipole expansion :   0.174547E-01

  Integrating Hamiltonian matrix: batch-based integration.
  Time summed over all CPUs for integration: real work        0.637 s, elapsed        0.670 s

  Updating Kohn-Sham eigenvalues and eigenvectors using ELSI and the ELPA eigensolver.
  Starting ELPA eigensolver
  Finished transformation to standard eigenproblem
  | Time :     0.001 s
  Finished solving standard eigenproblem
  | Time :     0.003 s
  Finished back-transformation of eigenvectors
  | Time :     0.000 s

  Obtaining occupation numbers and chemical potential using ELSI.
  | Chemical potential (Fermi level):    -7.98368516 eV
  Highest occupied state (VBM) at     -9.62146042 eV
  | Occupation number:      2.00000000

  Lowest unoccupied state (CBM) at    -4.40484599 eV
  | Occupation number:      0.00000000

  Overall HOMO-LUMO gap:      5.21661443 eV.

  Total energy components:
  | Sum of eigenvalues            :        -886.43108925 Ha      -24121.01720230 eV
  | XC energy correction          :        -145.13695854 Ha       -3949.37758395 eV
  | XC potential correction       :         188.98433625 Ha        5142.52543815 eV
  | Free-atom electrostatic energy:        -781.34715282 Ha      -21261.53780335 eV
  | Hartree energy correction     :          -1.16166818 Ha         -31.61059962 eV
  | Entropy correction            :           0.00000000 Ha           0.00000000 eV
  | ---------------------------
  | Total energy                  :       -1625.09253254 Ha      -44221.01775107 eV
  | Total energy, T -> 0          :       -1625.09253254 Ha      -44221.01775107 eV  <-- do not rely on this value for anything but (periodic) metals
  | Electronic free energy        :       -1625.09253254 Ha      -44221.01775107 eV

  Derived energy quantities:
  | Kinetic energy                :        1628.33549491 Ha       44309.26324690 eV
  | Electrostatic energy          :       -3108.29106891 Ha      -84580.90341402 eV
  | Energy correction for multipole
  | error in Hartree potential    :           0.06221095 Ha           1.69284597 eV
  | Sum of eigenvalues per atom                           :       -2010.08476686 eV
  | Total energy (T->0) per atom                          :       -3685.08481259 eV  <-- do not rely on this value for anything but (periodic) metals
  | Electronic free energy per atom                       :       -3685.08481259 eV
  Evaluating new KS density.
  Integration grid: deviation in total charge (<rho> - N_e) =   2.842171E-14

  Self-consistency convergence accuracy:
  | Change of charge density      :  0.1231E+00
  | Change of sum of eigenvalues  : -0.2686E+02 eV
  | Change of total energy        :  0.1589E-01 eV


------------------------------------------------------------
  End self-consistency iteration #     3       :  max(cpu_time)    wall_clock(cpu1)
  | Time for this iteration                     :        0.082 s           0.079 s
  | Charge density update                       :        0.027 s           0.027 s
  | Density mixing                              :        0.004 s           0.001 s
  | Hartree multipole update                    :        0.001 s           0.001 s
  | Hartree multipole summation                 :        0.017 s           0.017 s
  | Integration                                 :        0.028 s           0.028 s
  | Solution of K.-S. eqns.                     :        0.004 s           0.005 s
  | Total energy evaluation                     :        0.000 s           0.000 s

  Partial memory accounting:
  | Current value for overall tracked memory usage:
  |   Minimum:        0.274 MB (on task 23)
  |   Maximum:        0.293 MB (on task  0)
  |   Average:        0.288 MB
  | Peak value for overall tracked memory usage:
  |   Minimum:        1.309 MB (on task 21 after allocating wave)
  |   Maximum:        1.371 MB (on task  6 after allocating wave)
  |   Average:        1.336 MB
  | Largest tracked array allocation so far:
  |   Minimum:        0.705 MB (gradient_basis_wave on task  8)
  |   Maximum:        0.741 MB (gradient_basis_wave on task  6)
  |   Average:        0.721 MB
  Note:  These values currently only include a subset of arrays which are explicitly tracked.
  The "true" memory usage will be greater.
------------------------------------------------------------

------------------------------------------------------------
          Begin self-consistency iteration #    4

  Date     :  20220517, Time     :  110542.405
------------------------------------------------------------
  Pulay mixing of updated and previous charge densities.
  Renormalizing the density to the exact electron count on the 3D integration grid.
  | Formal number of electrons (from input files) :     120.0000000000
  | Integrated number of electrons on 3D grid     :     120.0000000000
  | Charge integration error                      :       0.0000000000
  | Normalization factor for density and gradient :       1.0000000000

  Evaluating partitioned Hartree potential by multipole expansion.
  | Original multipole sum: apparent total charge =   0.208589E-13
  | Sum of charges compensated after spline to logarithmic grids =   0.834923E-04
  | Analytical far-field extrapolation by fixed multipoles:
  | Hartree multipole sum: apparent total charge =   0.183007E-13
  Summing up the Hartree potential.
  Time summed over all CPUs for potential: real work        0.379 s, elapsed        0.394 s
  | RMS charge density error from multipole expansion :   0.193365E-01

  Integrating Hamiltonian matrix: batch-based integration.
  Time summed over all CPUs for integration: real work        0.638 s, elapsed        0.674 s

  Updating Kohn-Sham eigenvalues and eigenvectors using ELSI and the ELPA eigensolver.
  Starting ELPA eigensolver
  Finished transformation to standard eigenproblem
  | Time :     0.000 s
  Finished solving standard eigenproblem
  | Time :     0.003 s
  Finished back-transformation of eigenvectors
  | Time :     0.000 s

  Obtaining occupation numbers and chemical potential using ELSI.
  | Chemical potential (Fermi level):    -7.93914958 eV
  Highest occupied state (VBM) at     -9.74341631 eV
  | Occupation number:      2.00000000

  Lowest unoccupied state (CBM) at    -4.35278019 eV
  | Occupation number:      0.00000000

  Overall HOMO-LUMO gap:      5.39063612 eV.

  Total energy components:
  | Sum of eigenvalues            :        -886.54183734 Ha      -24124.03081107 eV
  | XC energy correction          :        -145.12253856 Ha       -3948.98519635 eV
  | XC potential correction       :         188.96475482 Ha        5141.99260024 eV
  | Free-atom electrostatic energy:        -781.34715282 Ha      -21261.53780335 eV
  | Hartree energy correction     :          -1.04378794 Ha         -28.40291484 eV
  | Entropy correction            :           0.00000000 Ha           0.00000000 eV
  | ---------------------------
  | Total energy                  :       -1625.09056183 Ha      -44220.96412537 eV
  | Total energy, T -> 0          :       -1625.09056183 Ha      -44220.96412537 eV  <-- do not rely on this value for anything but (periodic) metals
  | Electronic free energy        :       -1625.09056183 Ha      -44220.96412537 eV

  Derived energy quantities:
  | Kinetic energy                :        1627.73254382 Ha       44292.85611315 eV
  | Electrostatic energy          :       -3107.70056710 Ha      -84564.83504218 eV
  | Energy correction for multipole
  | error in Hartree potential    :           0.06800318 Ha           1.85046071 eV
  | Sum of eigenvalues per atom                           :       -2010.33590092 eV
  | Total energy (T->0) per atom                          :       -3685.08034378 eV  <-- do not rely on this value for anything but (periodic) metals
  | Electronic free energy per atom                       :       -3685.08034378 eV
  Evaluating new KS density.
  Integration grid: deviation in total charge (<rho> - N_e) =   2.842171E-14

  Self-consistency convergence accuracy:
  | Change of charge density      :  0.7892E-01
  | Change of sum of eigenvalues  : -0.3014E+01 eV
  | Change of total energy        :  0.5363E-01 eV


------------------------------------------------------------
  End self-consistency iteration #     4       :  max(cpu_time)    wall_clock(cpu1)
  | Time for this iteration                     :        0.082 s           0.079 s
  | Charge density update                       :        0.026 s           0.026 s
  | Density mixing                              :        0.004 s           0.002 s
  | Hartree multipole update                    :        0.001 s           0.001 s
  | Hartree multipole summation                 :        0.017 s           0.017 s
  | Integration                                 :        0.028 s           0.029 s
  | Solution of K.-S. eqns.                     :        0.004 s           0.004 s
  | Total energy evaluation                     :        0.000 s           0.000 s

  Partial memory accounting:
  | Current value for overall tracked memory usage:
  |   Minimum:        0.274 MB (on task 23)
  |   Maximum:        0.293 MB (on task  0)
  |   Average:        0.288 MB
  | Peak value for overall tracked memory usage:
  |   Minimum:        1.309 MB (on task 21 after allocating wave)
  |   Maximum:        1.371 MB (on task  6 after allocating wave)
  |   Average:        1.336 MB
  | Largest tracked array allocation so far:
  |   Minimum:        0.705 MB (gradient_basis_wave on task  8)
  |   Maximum:        0.741 MB (gradient_basis_wave on task  6)
  |   Average:        0.721 MB
  Note:  These values currently only include a subset of arrays which are explicitly tracked.
  The "true" memory usage will be greater.
------------------------------------------------------------

------------------------------------------------------------
          Begin self-consistency iteration #    5

  Date     :  20220517, Time     :  110542.491
------------------------------------------------------------
  Pulay mixing of updated and previous charge densities.
  Renormalizing the density to the exact electron count on the 3D integration grid.
  | Formal number of electrons (from input files) :     120.0000000000
  | Integrated number of electrons on 3D grid     :     120.0000000000
  | Charge integration error                      :       0.0000000000
  | Normalization factor for density and gradient :       1.0000000000

  Evaluating partitioned Hartree potential by multipole expansion.
  | Original multipole sum: apparent total charge =  -0.205637E-13
  | Sum of charges compensated after spline to logarithmic grids =   0.840285E-04
  | Analytical far-field extrapolation by fixed multipoles:
  | Hartree multipole sum: apparent total charge =  -0.205637E-13
  Summing up the Hartree potential.
  Time summed over all CPUs for potential: real work        0.379 s, elapsed        0.394 s
  | RMS charge density error from multipole expansion :   0.191189E-01

  Integrating Hamiltonian matrix: batch-based integration.
  Time summed over all CPUs for integration: real work        0.637 s, elapsed        0.670 s

  Updating Kohn-Sham eigenvalues and eigenvectors using ELSI and the ELPA eigensolver.
  Starting ELPA eigensolver
  Finished transformation to standard eigenproblem
  | Time :     0.000 s
  Finished solving standard eigenproblem
  | Time :     0.004 s
  Finished back-transformation of eigenvectors
  | Time :     0.000 s

  Obtaining occupation numbers and chemical potential using ELSI.
  | Chemical potential (Fermi level):    -7.89116199 eV
  Highest occupied state (VBM) at     -9.77555184 eV
  | Occupation number:      2.00000000

  Lowest unoccupied state (CBM) at    -4.29695717 eV
  | Occupation number:      0.00000000

  Overall HOMO-LUMO gap:      5.47859467 eV.

  Total energy components:
  | Sum of eigenvalues            :        -886.35596259 Ha      -24118.97290179 eV
  | XC energy correction          :        -145.11807658 Ha       -3948.86377977 eV
  | XC potential correction       :         188.95907782 Ha        5141.83812145 eV
  | Free-atom electrostatic energy:        -781.34715282 Ha      -21261.53780335 eV
  | Hartree energy correction     :          -1.22831831 Ha         -33.42424176 eV
  | Entropy correction            :           0.00000000 Ha           0.00000000 eV
[...]
   Total forces(   7)            :  0.133555E+01 -0.151369E+01 -0.119146E+01
  atom #    8
   Hellmann-Feynman              :  0.222590E+01  0.242351E+01 -0.348259E+00
   Ionic forces                  :  0.000000E+00  0.000000E+00  0.000000E+00
   Multipole                     :  0.362428E+00  0.394174E+00 -0.566558E-01
   Hartree pot. SCF incomplete   : -0.300994E-06 -0.294414E-06  0.522407E-07
   Pulay + GGA                   : -0.482066E+01 -0.528385E+01  0.748098E+00
   ----------------------------------------------------------------
   Total forces(   8)            : -0.223234E+01 -0.246617E+01  0.343183E+00
  atom #    9
   Hellmann-Feynman              :  0.610492E+00 -0.983779E+00 -0.481138E-01
   Ionic forces                  :  0.000000E+00  0.000000E+00  0.000000E+00
   Multipole                     :  0.351608E+00 -0.304553E+00 -0.283782E+00
   Hartree pot. SCF incomplete   :  0.153330E-06 -0.415462E-06 -0.160617E-05
   Pulay + GGA                   : -0.245502E+01  0.276639E+01  0.109256E+01
   ----------------------------------------------------------------
   Total forces(   9)            : -0.149291E+01  0.147806E+01  0.760661E+00
  atom #   10
   Hellmann-Feynman              : -0.101384E+01  0.534860E+00 -0.195956E+00
   Ionic forces                  :  0.000000E+00  0.000000E+00  0.000000E+00
   Multipole                     : -0.223076E+00  0.449924E+00  0.213017E+00
   Hartree pot. SCF incomplete   :  0.153413E-06  0.112055E-06  0.179597E-05
   Pulay + GGA                   :  0.286373E+01 -0.264139E+01 -0.344027E+00
   ----------------------------------------------------------------
   Total forces(  10)            :  0.162682E+01 -0.165660E+01 -0.326964E+00
  atom #   11
   Hellmann-Feynman              :  0.222783E+01  0.999505E+00  0.196586E+01
   Ionic forces                  :  0.000000E+00  0.000000E+00  0.000000E+00
   Multipole                     :  0.557576E+00  0.299162E+00  0.441008E+00
   Hartree pot. SCF incomplete   :  0.480937E-06  0.606209E-06 -0.350767E-06
   Pulay + GGA                   : -0.500850E+01 -0.225717E+01 -0.455773E+01
   ----------------------------------------------------------------
   Total forces(  11)            : -0.222309E+01 -0.958500E+00 -0.215086E+01
  atom #   12
   Hellmann-Feynman              : -0.232375E+01 -0.202677E+01  0.497062E+00
   Ionic forces                  :  0.000000E+00  0.000000E+00  0.000000E+00
   Multipole                     : -0.553596E+00 -0.454956E+00  0.801197E-01
   Hartree pot. SCF incomplete   : -0.424302E-06 -0.241072E-06  0.287334E-07
   Pulay + GGA                   :  0.523357E+01  0.452106E+01 -0.138199E+01
   ----------------------------------------------------------------
   Total forces(  12)            :  0.235622E+01  0.203933E+01 -0.804813E+00


  Self-consistency convergence accuracy:
  | Change of charge density      :  0.9854E-07
  | Change of sum of eigenvalues  : -0.2154E-05 eV
  | Change of total energy        : -0.1794E-08 eV
  | Change of forces              :  0.2813E-06 eV/A

  Writing Kohn-Sham eigenvalues.

  State    Occupation    Eigenvalue [Ha]    Eigenvalue [eV]
      1       2.00000         -55.642574        -1514.11149
      2       2.00000         -55.620613        -1513.51388
      3       2.00000         -55.620607        -1513.51372
      4       2.00000         -24.308457         -661.46677
      5       2.00000         -24.308454         -661.46669
      6       2.00000         -24.301528         -661.27822
      7       2.00000         -24.301527         -661.27819
      8       2.00000         -24.212428         -658.85370
      9       2.00000         -24.212427         -658.85367
     10       2.00000         -24.211492         -658.82822
     11       2.00000         -24.211491         -658.82818
     12       2.00000         -24.207757         -658.72658
     13       2.00000          -4.094851         -111.42657
     14       2.00000          -4.073959         -110.85807
     15       2.00000          -4.073955         -110.85795
     16       2.00000          -2.687837          -73.13977
     17       2.00000          -2.686058          -73.09136
     18       2.00000          -2.685290          -73.07045
     19       2.00000          -2.667720          -72.59234
     20       2.00000          -2.667714          -72.59218
     21       2.00000          -2.666216          -72.55143
     22       2.00000          -2.666211          -72.55128
     23       2.00000          -2.662545          -72.45153
     24       2.00000          -2.662542          -72.45145
     25       2.00000          -1.184846          -32.24130
     26       2.00000          -1.174109          -31.94913
     27       2.00000          -1.168510          -31.79678
     28       2.00000          -1.158372          -31.52091
     29       2.00000          -1.061464          -28.88390
     30       2.00000          -1.061427          -28.88289
     31       2.00000          -1.057844          -28.78541
     32       2.00000          -1.057829          -28.78500
     33       2.00000          -1.054774          -28.70186
     34       2.00000          -0.565205          -15.38000
     35       2.00000          -0.553011          -15.04820
     36       2.00000          -0.540700          -14.71319
     37       2.00000          -0.535550          -14.57306
     38       2.00000          -0.509559          -13.86581
     39       2.00000          -0.489926          -13.33158
     40       2.00000          -0.489724          -13.32606
     41       2.00000          -0.472829          -12.86633
     42       2.00000          -0.469111          -12.76516
     43       2.00000          -0.465999          -12.68047
     44       2.00000          -0.465412          -12.66450
     45       2.00000          -0.448675          -12.20907
     46       2.00000          -0.433036          -11.78351
     47       2.00000          -0.428232          -11.65280
     48       2.00000          -0.412014          -11.21148
     49       2.00000          -0.406486          -11.06104
     50       2.00000          -0.406022          -11.04842
     51       2.00000          -0.371393          -10.10612
     52       2.00000          -0.371045          -10.09666
     53       2.00000          -0.369907          -10.06569
     54       2.00000          -0.368782          -10.03506
     55       2.00000          -0.362942           -9.87615
     56       2.00000          -0.362672           -9.86880
     57       2.00000          -0.360761           -9.81680
     58       2.00000          -0.359572           -9.78444
     59       2.00000          -0.359089           -9.77130
     60       2.00000          -0.358953           -9.76760
     61       0.00000          -0.157987           -4.29903
     62       0.00000          -0.116136           -3.16023
     63       0.00000          -0.078758           -2.14311
     64       0.00000          -0.046703           -1.27085
     65       0.00000          -0.036504           -0.99332
     66       0.00000          -0.022075           -0.60070
     67       0.00000          -0.015540           -0.42286
     68       0.00000           0.022113            0.60173
     69       0.00000           0.028554            0.77699
     70       0.00000           0.056899            1.54830
     71       0.00000           0.057761            1.57177
     72       0.00000           0.102815            2.79774
     73       0.00000           0.130383            3.54790
     74       0.00000           0.143165            3.89572
     75       0.00000           0.163845            4.45846
     76       0.00000           0.165969            4.51623
     77       0.00000           0.169100            4.60144
     78       0.00000           0.176176            4.79399
     79       0.00000           0.188335            5.12487
     80       0.00000           0.189994            5.17001
     81       0.00000           0.197666            5.37877
     82       0.00000           0.209969            5.71354
     83       0.00000           0.212387            5.77935
     84       0.00000           0.219236            5.96573
     85       0.00000           0.234967            6.39379
     86       0.00000           0.241464            6.57057
     87       0.00000           0.248775            6.76952
     88       0.00000           0.255784            6.96023
     89       0.00000           0.260108            7.07789
     90       0.00000           0.270471            7.35988
     91       0.00000           0.290509            7.90516
     92       0.00000           0.302520            8.23198
     93       0.00000           0.319466            8.69310
     94       0.00000           0.349712            9.51616
     95       0.00000           0.362008            9.85074
     96       0.00000           0.366261            9.96646

  Highest occupied state (VBM) at     -9.76760140 eV
  | Occupation number:      2.00000000

  Lowest unoccupied state (CBM) at    -4.29903359 eV
  | Occupation number:      0.00000000

  Overall HOMO-LUMO gap:      5.46856781 eV.
  | Chemical Potential                          :    -7.89382724 eV

  Self-consistency cycle converged.


------------------------------------------------------------
  End self-consistency iteration #    14       :  max(cpu_time)    wall_clock(cpu1)
  | Time for this iteration                     :        0.261 s           0.260 s
  | Charge density & force component update     :        0.140 s           0.140 s
  | Density mixing                              :        0.005 s           0.003 s
  | Hartree multipole update                    :        0.001 s           0.001 s
  | Hartree multipole summation                 :        0.050 s           0.050 s
  | Hartree pot. SCF incomplete forces          :        0.033 s           0.032 s
  | Integration                                 :        0.028 s           0.028 s
  | Solution of K.-S. eqns.                     :        0.004 s           0.004 s
  | Total energy evaluation                     :        0.000 s           0.000 s

  Partial memory accounting:
  | Current value for overall tracked memory usage:
  |   Minimum:        0.274 MB (on task 23)
  |   Maximum:        0.293 MB (on task  0)
  |   Average:        0.289 MB
  | Peak value for overall tracked memory usage:
  |   Minimum:        2.911 MB (on task  8 after allocating hessian_basis_wave)
  |   Maximum:        3.030 MB (on task  6 after allocating hessian_basis_wave)
  |   Average:        2.961 MB
  | Largest tracked array allocation so far:
  |   Minimum:        1.410 MB (hessian_basis_wave on task  8)
  |   Maximum:        1.482 MB (hessian_basis_wave on task  6)
  |   Average:        1.443 MB
  Note:  These values currently only include a subset of arrays which are explicitly tracked.
  The "true" memory usage will be greater.
------------------------------------------------------------
  Removing unitary transformations (pure translations, rotations) from forces on atoms.
  Atomic forces before filtering:
  | Net force on center of mass :  -0.812747E-03  0.203563E-03 -0.234334E-02 eV/A
  | Net torque on center of mass:  -0.123618E-01 -0.127733E-01 -0.432511E-02 eV
  Atomic forces after filtering:
  | Net force on center of mass :  -0.713624E-15 -0.107044E-14 -0.107044E-14 eV/A
  | Net torque on center of mass:  -0.226580E-14  0.122731E-14  0.000000E+00 eV

  Energy and forces in a compact form:
  | Total energy uncorrected      :         -0.442209604353767E+05 eV
  | Total energy corrected        :         -0.442209604353767E+05 eV  <-- do not rely on this value for anything but (periodic) metals
  | Electronic free energy        :         -0.442209604353767E+05 eV
  Total atomic forces (unitary forces cleaned) [eV/Ang]:
  |    1         -0.126313645223504E+00         -0.818102392413559E+00          0.242297091582026E+01
  |    2          0.191033600999308E+01          0.232076282252672E+01         -0.259653277787889E+00
  |    3         -0.160800643733553E+01         -0.925624167993771E-01         -0.198999719982578E+01
  |    4          0.256221707688393E+01          0.193858638184452E+01         -0.192345503354102E+00
  |    5         -0.150226327584041E+01          0.148229901824334E+01          0.733568623009904E+00
  |    6         -0.607175632157901E+00         -0.175250564207630E+01          0.265457090206699E+01
  |    7          0.133526789411774E+01         -0.151377064424622E+01         -0.119084010273524E+01
  |    8         -0.223267239508601E+01         -0.246574783927528E+01          0.343508038328651E+00
  |    9         -0.149296325038789E+01          0.147852939997180E+01          0.760629833431887E+00
  |   10          0.162695717068812E+01         -0.165704320708889E+01         -0.326542839325868E+00
  |   11         -0.222246600823453E+01         -0.958965698893348E+00         -0.215095197944304E+01
  |   12          0.235708249258291E+01          0.203852021820658E+01         -0.804917410185773E+00

  ------------------------------------ 
  Start decomposition of the XC Energy 
  ------------------------------------ 
  X and C from original XC functional choice 
  Hartree-Fock Energy :          0.000000000 Ha              0.000000000 eV
  X Energy            :       -140.180977999 Ha          -3814.518491909 eV
  C Energy            :         -4.941285473 Ha           -134.459218930 eV
  Total XC Energy     :       -145.122263472 Ha          -3948.977710838 eV
  ------------------------------------ 
  LDA X and C from self-consistent density 
  X Energy LDA        :       -132.753625753 Ha          -3612.409954121 eV
  C Energy LDA        :         -8.823328977 Ha           -240.094997373 eV
  ------------------------------------ 
  End decomposition of the XC Energy 
  ------------------------------------ 

------------------------------------------------------------

------------------------------------------------------------------------------
  Final output of selected total energy values:

  The following output summarizes some interesting total energy values
  at the end of a run (AFTER all relaxation, molecular dynamics, etc.).

  | Total energy of the DFT / Hartree-Fock s.c.f. calculation      :         -44220.960435377 eV
  | Final zero-broadening corrected energy (caution - metals only) :         -44220.960435377 eV
  | For reference only, the value of 1 Hartree used in FHI-aims is :             27.211384500 eV

  Before relying on these values, please be sure to understand exactly which
  total energy value is referred to by a given number. Different objects may
  all carry the same name 'total energy'. Definitions:

  Total energy of the DFT / Hartree-Fock s.c.f. calculation:
  | Note that this energy does not include ANY quantities calculated after the
  | s.c.f. cycle, in particular not ANY RPA, MP2, etc. many-body perturbation terms.

  Final zero-broadening corrected energy:
  | For metallic systems only, a broadening of the occupation numbers at the Fermi
  | level can be extrapolated back to zero broadening by an electron-gas inspired
  | formula. For all systems that are not real metals, this value can be
  | meaningless and should be avoided.

------------------------------------------------------------------------------
  Methods described in the following list of references were used in this FHI-aims run.
  If you publish the results, please make sure to cite these reference if they apply.
  FHI-aims is an academic code, and for our developers (often, Ph.D. students
  and postdocs), scientific credit in the community is essential.
  Thank you for helping us!

  For any use of FHI-aims, please cite:

    Volker Blum, Ralf Gehrke, Felix Hanke, Paula Havu, Ville Havu,
    Xinguo Ren, Karsten Reuter, and Matthias Scheffler
    'Ab initio molecular simulations with numeric atom-centered orbitals'
    Computer Physics Communications 180, 2175-2196 (2009)
    http://dx.doi.org/10.1016/j.cpc.2009.06.022


  The ELSI infrastructure was used in your run to solve the Kohn-Sham electronic structure.
  Please check out http://elsi-interchange.org to learn more.
  If scalability is important for your project, please acknowledge ELSI by citing:

    V. W-z. Yu, F. Corsetti, A. Garcia, W. P. Huhn, M. Jacquelin, W. Jia,
    B. Lange, L. Lin, J. Lu, W. Mi, A. Seifitokaldani, A. Vazquez-Mayagoitia,
    C. Yang, H. Yang, and V. Blum
    'ELSI: A unified software interface for Kohn-Sham electronic structure solvers'
    Computer Physics Communications 222, 267-285 (2018).
    http://dx.doi.org/10.1016/j.cpc.2017.09.007


  For the real-space grid partitioning and parallelization used in this calculation, please cite:

    Ville Havu, Volker Blum, Paula Havu, and Matthias Scheffler,
    'Efficient O(N) integration for all-electron electronic structure calculation'
    'using numerically tabulated basis functions'
    Journal of Computational Physics 228, 8367-8379 (2009).
    http://dx.doi.org/10.1016/j.jcp.2009.08.008

  Of course, there are many other important community references, e.g., those cited in the
  above references. Our list is limited to references that describe implementations in the
  FHI-aims code. The reason is purely practical (length of this list) - please credit others as well.

------------------------------------------------------------
          Leaving FHI-aims.
          Date     :  20220517, Time     :  110543.721

          Computational steps:
          | Number of self-consistency cycles          :           14
          | Number of SCF (re)initializations          :            1

          Detailed time accounting                     :  max(cpu_time)    wall_clock(cpu1)
          | Total time                                  :        2.021 s           2.105 s
          | Preparation time                            :        0.183 s           0.186 s
          | Boundary condition initalization            :        0.000 s           0.000 s
          | Grid partitioning                           :        0.041 s           0.041 s
          | Preloading free-atom quantities on grid     :        0.016 s           0.016 s
          | Free-atom superposition energy              :        0.006 s           0.006 s
          | Total time for integrations                 :        0.449 s           0.449 s
          | Total time for solution of K.-S. equations  :        0.158 s           0.159 s
          | Total time for density & force components   :        0.633 s           0.633 s
          | Total time for mixing                       :        0.062 s           0.036 s
          | Total time for Hartree multipole update     :        0.029 s           0.029 s
          | Total time for Hartree multipole sum        :        0.305 s           0.307 s
          | Total time for total energy evaluation      :        0.003 s           0.001 s
          | Total time NSC force correction             :        0.065 s           0.065 s
          | Total time for scaled ZORA corrections      :        0.000 s           0.000 s

          Partial memory accounting:
          | Residual value for overall tracked memory usage across tasks:     0.000000 MB (should be 0.000000 MB)
          | Peak values for overall tracked memory usage:
          |   Minimum:        2.911 MB (on task  8 after allocating hessian_basis_wave)
          |   Maximum:        3.030 MB (on task  6 after allocating hessian_basis_wave)
          |   Average:        2.961 MB
          | Largest tracked array allocation:
          |   Minimum:        1.410 MB (hessian_basis_wave on task  8)
          |   Maximum:        1.482 MB (hessian_basis_wave on task  6)
          |   Average:        1.443 MB
          Note:  These values currently only include a subset of arrays which are explicitly tracked.
          The "true" memory usage will be greater.

          Have a nice day.
------------------------------------------------------------
