********************************************************************************
*                       GENERAL UTILITY LATTICE PROGRAM                        *
*                                 Julian Gale                                  *
*                       Curtin Institute for Computation                       *
*                           Department of Chemistry                            *
*                    Curtin University, Western Australia                      *
********************************************************************************
* Version = 5.1.1 * Last modified =  11th January 2019                         *
********************************************************************************
*  single       - perform a single point run                                   *
*  phonon       - calculate phonons for final geometry                         *
*  eigenvectors - output phonon eigenvectors                                   *
********************************************************************************

  Job Started  at 10:29.33 17th May        2022                               

  Number of CPUs =     1

  Host name      = login04                                 


  Total number of configurations input =      1

********************************************************************************
*  Input for Configuration =   1                                               *
********************************************************************************

  Formula = Al3F9                                                       

  Number of irreducible atoms/shells =      21


  Total number atoms/shells =      21

  Dimensionality = 0               :  Cluster


  Charge on cluster =  -0.000000


  Initial cluster dipoles : x =     -0.052111 e.Angs
                            y =     -0.399676 e.Angs
                            z =     -0.048470 e.Angs

  Temperature of configuration =  0.000     K 

  Symmetry number =      1

  Cartesian coordinates of cluster :

--------------------------------------------------------------------------------
   No.  Atomic       x           y          z         Charge      Occupancy
        Label      (Angs)      (Angs)     (Angs)        (e)         (Frac)  
--------------------------------------------------------------------------------
      1 Al    c      1.2847      0.0465      2.4427     3.00000    1.000000    
      2 Al    c      1.3123      1.1478     -0.1019     3.00000    1.000000    
      3 Al    c     -0.3170      0.8333     -2.3234     3.00000    1.000000    
      4 F     c     -1.7184     -0.3141     -2.1935     0.59000    1.000000    
      5 F     c      2.1331     -0.3504      0.7769     0.59000    1.000000    
      6 F     c      0.0481      1.8224     -3.7970     0.59000    1.000000    
      7 F     c     -0.3599      1.8678     -0.7346     0.59000    1.000000    
      8 F     c      2.5530      2.4616     -0.3019     0.59000    1.000000    
      9 F     c      1.3067      0.0556     -1.6823     0.59000    1.000000    
     10 F     c      0.4144      1.4875      1.5695     0.59000    1.000000    
     11 F     c      2.5424      0.5971      3.6251     0.59000    1.000000    
     12 F     c     -0.0273     -1.1449      2.8386     0.59000    1.000000    
     13 F     s     -1.7184     -0.3141     -2.1935    -1.59000    1.000000    
     14 F     s      2.1331     -0.3504      0.7769    -1.59000    1.000000    
     15 F     s      0.0481      1.8224     -3.7970    -1.59000    1.000000    
     16 F     s     -0.3599      1.8678     -0.7346    -1.59000    1.000000    
     17 F     s      2.5530      2.4616     -0.3019    -1.59000    1.000000    
     18 F     s      1.3067      0.0556     -1.6823    -1.59000    1.000000    
     19 F     s      0.4144      1.4875      1.5695    -1.59000    1.000000    
     20 F     s      2.5424      0.5971      3.6251    -1.59000    1.000000    
     21 F     s     -0.0273     -1.1449      2.8386    -1.59000    1.000000    
--------------------------------------------------------------------------------


  Brillouin zone sampling points :

--------------------------------------------------------------------------------
  Point number          x          y          z            Weight
--------------------------------------------------------------------------------
        1           0.000000   0.000000   0.000000     1.00000000
--------------------------------------------------------------------------------


********************************************************************************
*  General input information                                                   *
********************************************************************************

  Species output for all configurations : 

--------------------------------------------------------------------------------
  Species    Type    Atomic    Atomic    Charge       Radii (Angs)     Library
                     Number     Mass       (e)     Cova   Ionic  VDW   Symbol
--------------------------------------------------------------------------------
    Al       Core       13      26.98   3.000000   1.350  0.000  2.050          
    F        Core        9      19.00   0.590000   0.710  0.000  1.300          
    F        Shell       9       0.00  -1.590000   0.710  0.000  1.300          
--------------------------------------------------------------------------------


  Accuracy factor for short range sums = 12.000

  Time limit = Infinity

  Maximum range for interatomic potentials =    100000.000000 Angstroms

  General interatomic potentials :

--------------------------------------------------------------------------------
Atom  Types   Potential      Parameter       Value         Units   Cutoffs(Ang)
  1     2                                                            Min /  Max 
--------------------------------------------------------------------------------
Al   c F    s Buckingham    Buckingham A     3760.0008    eV        0.000 10.000
                            Buckingham rho  0.22200000    Ang       
                            Buckingham C     0.0000000    eV*Ang^6  
--------------------------------------------------------------------------------
F    s F    s Buck 4 range  Buck4 A          1127.7000    eV        0.000 12.000
                            Buck4 rho       0.27530000    Ang       
                            Buck4 C          15.830000    eV*Ang^6  
                            Buck4 minimum    2.7900000    Ang       
--------------------------------------------------------------------------------
F    c F    s Spring (c-s)  Spring k 2       20.770000    eV*Ang^-2 0.000  0.800
                            Spring k 4       0.0000000    eV*Ang^-4 
--------------------------------------------------------------------------------

********************************************************************************
*  Output for configuration   1                                                *
********************************************************************************


  Components of energy : 

--------------------------------------------------------------------------------
  Interatomic potentials     =          10.46892608 eV    
  Monopole - monopole (real) =        -178.63057954 eV    
--------------------------------------------------------------------------------
  Total lattice energy       =        -168.16165346 eV    
--------------------------------------------------------------------------------
  Total lattice energy       =          -16225.0290 kJ/mol
--------------------------------------------------------------------------------

  Born effective charge tensors : 

-------------------------------------------------------------------------------
  Atom             x           y             z
-------------------------------------------------------------------------------
    1 Al    x       2.0547      0.1929      0.1180
            y       0.2089      1.9368     -0.1882
            z       0.0980     -0.2281      2.3884
-------------------------------------------------------------------------------
    2 Al    x       2.1178     -0.0557      0.1420
            y      -0.0487      2.0446     -0.0700
            z       0.1431     -0.0676      2.5084
-------------------------------------------------------------------------------
    3 Al    x       2.1227      0.2259      0.1933
            y       0.2087      1.9043     -0.1266
            z       0.2130     -0.0871      2.3529
-------------------------------------------------------------------------------
    4 F     x      -0.9255     -0.3286     -0.0315
            y      -0.3083     -0.7190      0.0097
            z      -0.0915     -0.0424     -0.5517
-------------------------------------------------------------------------------
    5 F     x      -0.5336      0.2409     -0.0065
            y       0.2149     -0.6511      0.1164
            z       0.0579      0.1609     -0.9044
-------------------------------------------------------------------------------
    6 F     x      -0.5217     -0.0417      0.0228
            y      -0.0593     -0.6627      0.2749
            z       0.0593      0.3071     -1.0386
-------------------------------------------------------------------------------
    7 F     x      -0.7342      0.1784     -0.1769
            y       0.2035     -0.5419     -0.0733
            z      -0.2376     -0.1252     -0.8127
-------------------------------------------------------------------------------
    8 F     x      -0.8236     -0.3723      0.0226
            y      -0.3595     -0.8444      0.0761
            z       0.0248      0.0804     -0.5684
-------------------------------------------------------------------------------
    9 F     x      -0.6682      0.1465     -0.1365
            y       0.1718     -0.5511     -0.1448
            z      -0.2010     -0.1896     -0.8698
-------------------------------------------------------------------------------
   10 F     x      -0.5225      0.2101      0.0514
            y       0.1809     -0.5974      0.0567
            z       0.1114      0.1071     -0.9688
-------------------------------------------------------------------------------
   11 F     x      -0.7827     -0.1200     -0.3058
            y      -0.1037     -0.5395     -0.0773
            z      -0.3426     -0.1100     -0.9008
-------------------------------------------------------------------------------
   12 F     x      -0.7833     -0.2765      0.1071
            y      -0.3092     -0.7784      0.1465
            z       0.1651      0.1945     -0.6344
-------------------------------------------------------------------------------




  Moment of inertia tensor (10^-46 x kgm^2): 

-------------------------------------------------------------------------------
                x           y           z           Principal axis system
-------------------------------------------------------------------------------
       x        240.83       -7.66      -55.36           79.874362
       y         -7.66      261.23       32.51          244.986878
       z        -55.36       32.51      103.85          281.043617
-------------------------------------------------------------------------------
  Centre of mass (Ang) =     0.763948     0.706019     0.009489
-------------------------------------------------------------------------------


  Vibrational Frequency Calculation : 

--------------------------------------------------------------------------------

  Frequencies (cm-1) and Eigenvectors : 

  Frequency    -331.5819 -217.5813  -67.2546  -60.9971   -0.0000    0.0000
  IR Intensity    0.0011    0.0000    0.0007    0.0001    0.0000    0.0000
     in X         0.0007    0.0000    0.0001    0.0001    0.0000    0.0000
     in Y         0.0003    0.0000    0.0000    0.0000    0.0000    0.0000
     in Z         0.0001    0.0000    0.0006    0.0000    0.0000    0.0000
  Raman Intsty    0.0141    0.0000    0.0000    0.2285    0.0000    0.0000

     1 x       0.267639 -0.385882  0.313028  0.253217 -0.010785  0.304327
     1 y      -0.293254  0.407297  0.310913  0.149515  0.015016 -0.119303
     1 z      -0.121163  0.189579 -0.000785  0.204532 -0.326722 -0.015528
     2 x      -0.513444  0.004380 -0.042097 -0.345848 -0.010785  0.304327
     2 y       0.548309 -0.002151  0.020678 -0.360849  0.015016 -0.119303
     2 z       0.263073  0.013033 -0.125259  0.056656 -0.326722 -0.015528
     3 x       0.257502  0.381551 -0.281734  0.097036 -0.010785  0.304327
     3 y      -0.288274 -0.405170 -0.326284  0.226241  0.015016 -0.119303
     3 z      -0.151326 -0.202462  0.093898 -0.260207 -0.326722 -0.015528
     4 x       0.031059  0.099101 -0.234523  0.091647 -0.009050  0.255385
     4 y      -0.016014 -0.069419 -0.243296  0.164861  0.012601 -0.100117
     4 z      -0.009454 -0.036318  0.045819 -0.179727 -0.274179 -0.013031
     5 x      -0.042279 -0.141752  0.114544 -0.043118 -0.009050  0.255385
     5 y       0.016291  0.171469  0.132276 -0.088390  0.012601 -0.100117
     5 z      -0.019075 -0.053110 -0.039408  0.067661 -0.274179 -0.013031
     6 x       0.024083  0.081935 -0.185686  0.055211 -0.009050  0.255385
     6 y      -0.023030 -0.080859 -0.235441  0.162885  0.012601 -0.100117
     6 z      -0.020569 -0.051228  0.106354 -0.219115 -0.274179 -0.013031
     7 x      -0.026312  0.197861 -0.143429 -0.093987 -0.009050  0.255385
     7 y       0.027519 -0.156709 -0.157565 -0.052554  0.012601 -0.100117
     7 z      -0.038422  0.036052  0.004008 -0.037377 -0.274179 -0.013031
     8 x      -0.041763  0.001435 -0.016047 -0.258260 -0.009050  0.255385
     8 y       0.056933 -0.000704  0.007881 -0.276654  0.012601 -0.100117
     8 z       0.023434  0.004268 -0.047745  0.041120 -0.274179 -0.013031
     9 x      -0.021073  0.065674 -0.127957 -0.083062 -0.009050  0.255385
     9 y       0.005874 -0.134097 -0.125688 -0.068765  0.012601 -0.100117
     9 z       0.044024 -0.173266 -0.000499 -0.051201 -0.274179 -0.013031
    10 x       0.004228 -0.122160  0.132711 -0.058450 -0.009050  0.255385
    10 y       0.012516  0.119521  0.162829 -0.070013  0.012601 -0.100117
    10 z       0.052453  0.189204 -0.035899  0.068371 -0.274179 -0.013031
    11 x       0.029196 -0.088032  0.234509  0.189289 -0.009050  0.255385
    11 y      -0.025541  0.083854  0.211459  0.097017  0.012601 -0.100117
    11 z      -0.005354  0.033085  0.038921  0.179853 -0.274179 -0.013031
    12 x       0.028921 -0.094121  0.238751  0.195480 -0.009050  0.255385
    12 y      -0.014963  0.066972  0.241221  0.113851  0.012601 -0.100117
    12 z      -0.015817  0.051135 -0.033243  0.129246 -0.274179 -0.013031


  Frequency       0.0000  140.7912  145.6390  147.9647  149.0604  152.8068
  IR Intensity    0.0000    0.0002    0.0001    0.0001    0.0011    0.0000
     in X         0.0000    0.0000    0.0000    0.0000    0.0006    0.0000
     in Y         0.0000    0.0000    0.0000    0.0000    0.0005    0.0000
     in Z         0.0000    0.0001    0.0001    0.0000    0.0000    0.0000
  Raman Intsty    0.0000    0.0000    0.0000    0.0000    0.6493    0.1476

     1 x      -0.119825  0.010943  0.000005  0.031507 -0.011780 -0.055593
     1 y      -0.304352  0.027544 -0.013449  0.047170  0.040027 -0.053542
     1 z      -0.010033  0.002594 -0.002003 -0.038183 -0.103114  0.002834
     2 x      -0.119825 -0.003784 -0.002990  0.014164 -0.093813  0.095509
     2 y      -0.304352  0.001859  0.001469 -0.006958 -0.086923  0.088846
     2 z      -0.010033 -0.011260 -0.008897  0.042145  0.017177 -0.017430
     3 x      -0.119825 -0.009926  0.000124 -0.052364  0.055234 -0.051461
     3 y      -0.304352 -0.028043  0.013386 -0.036924  0.007107 -0.055572
     3 z      -0.010033  0.000431  0.002387 -0.023879  0.096291  0.015129
     4 x      -0.100555  0.045647  0.155775 -0.121456  0.136914 -0.170793
     4 y      -0.255407 -0.045716 -0.129185  0.017165 -0.071322 -0.009418
     4 z      -0.008419  0.276891  0.285539 -0.252041  0.274821 -0.541389
     5 x      -0.100555  0.091566 -0.355631 -0.106985 -0.121937  0.013049
     5 y      -0.255407  0.050032 -0.233119 -0.085647 -0.122914  0.028564
     5 z      -0.008419  0.033642 -0.147049 -0.062921 -0.047660 -0.008152
     6 x      -0.100555 -0.071475 -0.389350 -0.072824  0.378155  0.209112
     6 y      -0.255407 -0.275206  0.092442 -0.004827  0.234483  0.096270
     6 z      -0.008419 -0.193801 -0.053748 -0.017963  0.344942  0.194614
     7 x      -0.100555  0.228990 -0.024737  0.022418 -0.089908 -0.107071
     7 y      -0.255407  0.390067 -0.081042  0.001277 -0.069837 -0.169074
     7 z      -0.008419 -0.269024  0.068046 -0.040352  0.079586  0.072387
     8 x      -0.100555  0.046283  0.000819  0.276252 -0.099324 -0.047206
     8 y      -0.255407 -0.022736 -0.000402 -0.135707 -0.113052  0.216142
     8 z      -0.008419  0.137718  0.002436  0.822013  0.014715  0.051549
     9 x      -0.100555 -0.058463  0.221181  0.057034 -0.081646  0.018050
     9 y      -0.255407 -0.066294  0.299168  0.110185 -0.142705  0.026108
     9 z      -0.008419  0.064858 -0.253021 -0.085713  0.072226  0.006726
    10 x      -0.100555 -0.380173  0.067837 -0.041888 -0.125808 -0.144985
    10 y      -0.255407 -0.315799  0.059870  0.008288 -0.052201 -0.150449
    10 z      -0.008419 -0.180836  0.060199 -0.017584 -0.027238 -0.040429
    11 x      -0.100555 -0.030146  0.271535  0.048277  0.122719  0.062332
    11 y      -0.255407  0.325127 -0.034568  0.016885  0.359965  0.168375
    11 z      -0.008419 -0.108581 -0.296817 -0.055076 -0.415132 -0.242147
    12 x      -0.100555  0.131070  0.055981 -0.052853 -0.059156  0.181270
    12 y      -0.255407 -0.041095  0.025161  0.068463  0.024997 -0.182367
    12 z      -0.008419  0.248946  0.344559 -0.266629 -0.308600  0.506205


  Frequency     153.0223  157.7047  160.6992  161.7280  176.3639  180.8226
  IR Intensity    0.0000    0.0000    0.0001    0.0001    0.0152    0.0000
     in X         0.0000    0.0000    0.0000    0.0000    0.0015    0.0000
     in Y         0.0000    0.0000    0.0000    0.0000    0.0004    0.0000
     in Z         0.0000    0.0000    0.0000    0.0000    0.0134    0.0000
  Raman Intsty    0.0045    0.0000    0.0141    0.0000    0.0000    0.0025

     1 x      -0.017110  0.015057 -0.003483 -0.013590  0.085349 -0.021788
     1 y      -0.018325 -0.015052  0.035834  0.036593  0.104555  0.026030
     1 z      -0.005826 -0.010036  0.001270  0.006668 -0.030456  0.014744
     2 x       0.015951 -0.002934 -0.004073 -0.003261 -0.054056  0.056009
     2 y       0.029327  0.001442 -0.058091  0.001601  0.026555 -0.046268
     2 z      -0.000519 -0.008732 -0.008221 -0.009702 -0.160848 -0.026461
     3 x      -0.012070 -0.016525 -0.000054  0.011267 -0.096569 -0.023630
     3 y      -0.020801  0.015774  0.034150 -0.035452 -0.099044  0.026935
     3 z       0.009172  0.005667  0.011473 -0.013579 -0.002931  0.009263
     4 x      -0.323328  0.383523 -0.038814  0.017570 -0.106121  0.133827
     4 y       0.342870 -0.489757  0.100698 -0.042466 -0.080697 -0.169998
     4 z       0.012629 -0.227020  0.171404 -0.049825  0.188014 -0.114924
     5 x      -0.221951  0.065123  0.149129  0.178388 -0.216943 -0.276923
     5 y      -0.176260 -0.089651  0.119512  0.267534 -0.055822 -0.236620
     5 z      -0.034451  0.084776  0.015694  0.003946 -0.202954 -0.063716
     6 x       0.260085  0.083554  0.274779 -0.320003  0.363615  0.004086
     6 y      -0.185868  0.012068 -0.327188  0.421303  0.173196 -0.021473
     6 z      -0.029040  0.028254 -0.162123  0.211333  0.324155 -0.018327
     7 x       0.123333 -0.124621 -0.105829  0.218828  0.025701  0.221633
     7 y       0.149748  0.085044 -0.119937  0.114708  0.130100  0.275929
     7 z      -0.066634 -0.102995  0.059161 -0.068232 -0.190153 -0.149217
     8 x       0.225459  0.005474 -0.422459  0.004631  0.010704 -0.350762
     8 y      -0.193286 -0.002689  0.377258 -0.002274 -0.005258  0.381277
     8 z      -0.107679  0.016291  0.204257  0.013789  0.031852  0.180825
     9 x      -0.174825  0.006479  0.121967 -0.166756  0.059757 -0.207531
     9 y      -0.199409  0.054478  0.132860 -0.273245  0.133038 -0.270709
     9 z       0.105774  0.128279 -0.065137  0.030659 -0.264765  0.142770
    10 x       0.152753  0.030941 -0.131407 -0.226863 -0.145363  0.292542
    10 y       0.135295 -0.039025 -0.107368 -0.110764 -0.071316  0.241096
    10 z       0.020908 -0.175757 -0.016959  0.044326 -0.165915  0.061776
    11 x       0.207590 -0.051519  0.284067  0.340190 -0.117348  0.011990
    11 y      -0.160081 -0.027806 -0.331746 -0.431222 -0.294174 -0.025356
    11 z      -0.185244  0.067066 -0.134472 -0.151280  0.408633  0.005193
    12 x      -0.233351 -0.393707 -0.122364 -0.039330  0.203784  0.158517
    12 y       0.298669  0.494759  0.141740  0.053157  0.032721 -0.182127
    12 z       0.280366  0.196717 -0.077212 -0.014919  0.102590 -0.041456


  Frequency     193.4230  195.0112  223.9767  256.4547  287.2602  300.0376
  IR Intensity    0.0147    0.0208    0.0108    0.0023    0.0092    0.0057
     in X         0.0058    0.0021    0.0044    0.0002    0.0050    0.0006
     in Y         0.0073    0.0005    0.0063    0.0001    0.0040    0.0001
     in Z         0.0016    0.0183    0.0001    0.0020    0.0002    0.0050
  Raman Intsty    0.0001    0.0000    0.0412    0.0000    2.9421    0.0000

     1 x       0.104899 -0.103024 -0.082017  0.009644 -0.003893 -0.225171
     1 y      -0.115111 -0.035820 -0.114380  0.000322  0.110617  0.262255
     1 z      -0.056607 -0.146059  0.031015  0.026697 -0.280079  0.156367
     2 x       0.069894 -0.037318 -0.183850  0.006165 -0.068755  0.012066
     2 y      -0.060896  0.018332 -0.184962 -0.003029 -0.055862 -0.005927
     2 z      -0.033542 -0.111042  0.031251  0.018346  0.013884  0.035904
     3 x       0.106284 -0.000000 -0.095183  0.007973  0.172748  0.247217
     3 y      -0.115792  0.086429 -0.107912 -0.008977  0.023844 -0.273086
     3 z      -0.052484 -0.160500 -0.008162  0.025723  0.245531 -0.090767
     4 x      -0.193683  0.144922 -0.175728  0.044700  0.189110 -0.062445
     4 y       0.261066 -0.013157 -0.102377 -0.045835  0.224203  0.139652
     4 z       0.130690  0.324443 -0.019733 -0.054478 -0.154907  0.031472
     5 x       0.169011  0.226402  0.311333  0.180416  0.055039  0.174590
     5 y      -0.226299  0.227997  0.168895 -0.033039 -0.001988 -0.264615
     5 z      -0.083934 -0.112828  0.137596 -0.476206 -0.202801  0.059336
     6 x      -0.215619  0.112686  0.087116  0.031041 -0.173054 -0.108655
     6 y       0.232875  0.133628  0.015120 -0.063104 -0.247644  0.084802
     6 z       0.102807 -0.152030  0.188483 -0.006144  0.232348  0.076187
     7 x       0.194325 -0.256785  0.164660  0.050556  0.012747 -0.380353
     7 y      -0.221474 -0.198024  0.265795  0.241611  0.094320  0.227837
     7 z      -0.065799 -0.009900 -0.227696  0.406899  0.186244 -0.074225
     8 x      -0.207230  0.107575 -0.255225 -0.002814 -0.241171 -0.002412
     8 y       0.237805 -0.052845 -0.253430  0.001382 -0.253941  0.001184
     8 z       0.108902  0.320098  0.043934 -0.008373  0.039126 -0.007176
     9 x       0.162984 -0.270248  0.184982 -0.422177  0.163492 -0.079271
     9 y      -0.223337 -0.206457  0.230964  0.151804 -0.055265  0.217791
     9 z      -0.101870 -0.017645 -0.238377 -0.243178  0.119908  0.224292
    10 x       0.173061  0.219350  0.292130  0.175810 -0.090389  0.239074
    10 y      -0.211030  0.216413  0.203176 -0.352811  0.144985 -0.158433
    10 z      -0.129070 -0.101493  0.151606  0.266672 -0.120644 -0.346164
    11 x      -0.210843 -0.192988 -0.039780 -0.022373 -0.299838  0.123787
    11 y       0.230530 -0.094179  0.077457  0.058845 -0.185362 -0.092236
    11 z       0.117018 -0.086912 -0.189108  0.031939 -0.144910 -0.031157
    12 x      -0.206947  0.076324 -0.139245 -0.063499  0.264781  0.055037
    12 y       0.267582 -0.095528 -0.120299  0.055069  0.187030 -0.136012
    12 z       0.091222  0.333898  0.088824 -0.001458  0.070259 -0.053519


  Frequency     328.5473  361.4187  363.5891  367.2014  376.6139  392.6070
  IR Intensity    0.0049    0.0281    0.1217    0.0150    0.0227    0.6735
     in X         0.0005    0.0162    0.0121    0.0061    0.0011    0.0667
     in Y         0.0001    0.0085    0.0029    0.0088    0.0214    0.0161
     in Z         0.0043    0.0034    0.1067    0.0001    0.0002    0.5906
  Raman Intsty    0.0000    0.5947    0.0000    0.8216    4.1133    0.0000

     1 x       0.032612 -0.038534  0.013299 -0.002797 -0.026499 -0.034342
     1 y      -0.098513  0.045663  0.043721  0.033420  0.038586 -0.203919
     1 z       0.111650  0.014555 -0.087903 -0.068708 -0.040645  0.303295
     2 x      -0.028688 -0.118545 -0.063412  0.031841  0.037730  0.153522
     2 y       0.014093  0.068180  0.031151  0.058601  0.149961 -0.075417
     2 z      -0.085365  0.051094 -0.188690 -0.001026  0.012078  0.456817
     3 x       0.049253 -0.035036 -0.066737  0.041512  0.006466  0.226174
     3 y       0.058297  0.043945 -0.017470  0.011654  0.022393  0.109682
     3 z       0.131945  0.024962 -0.071107  0.063138  0.057445  0.267517
     4 x       0.257487  0.083268  0.251332 -0.157304 -0.167256 -0.115303
     4 y       0.223666  0.019942  0.207132 -0.137403 -0.156651 -0.085505
     4 z      -0.079387 -0.024321 -0.013404  0.013193  0.001080 -0.026473
     5 x      -0.213505 -0.006657  0.249629 -0.198131  0.259204  0.074053
     5 y       0.327043 -0.100769 -0.269107  0.295278 -0.298743  0.017106
     5 z      -0.070753  0.506424 -0.124067 -0.208387 -0.093514 -0.298560
     6 x      -0.102333  0.004582 -0.054809  0.040944  0.052504 -0.023484
     6 y      -0.220926 -0.075037 -0.152857  0.108939  0.120460 -0.018233
     6 z       0.240716  0.059870  0.235720 -0.166568 -0.211834 -0.023836
     7 x      -0.241345  0.319402  0.202389  0.337496 -0.088764 -0.044467
     7 y       0.119234 -0.098931 -0.251408 -0.166745  0.244540 -0.157596
     7 z      -0.044329  0.298637 -0.165196  0.167983  0.358737 -0.315105
     8 x       0.012442  0.027433  0.004849 -0.249504 -0.080526 -0.022263
     8 y      -0.006112  0.026968 -0.002383 -0.265018 -0.096090  0.010937
     8 z       0.037023 -0.004767  0.014431  0.040098  0.011199 -0.066246
     9 x       0.097672 -0.313678 -0.247119 -0.007299  0.233905 -0.237047
     9 y      -0.270141  0.050055  0.267876  0.201533 -0.286316  0.062964
     9 z      -0.273920 -0.407141  0.131530  0.359444 -0.168793 -0.186439
    10 x       0.155797  0.070453 -0.235208  0.155385 -0.258853 -0.134757
    10 y      -0.077209  0.023364  0.267530 -0.077285  0.328095  0.245638
    10 z      -0.210227 -0.442130  0.067539 -0.373911 -0.147377 -0.218192
    11 x       0.245460 -0.038920  0.197783  0.141624  0.178700  0.006554
    11 y       0.150616 -0.053666  0.082624  0.059479  0.058467  0.026549
    11 z       0.185172 -0.069576  0.189709  0.133016  0.163673 -0.026538
    12 x      -0.275042  0.083048 -0.229602 -0.147289 -0.150002  0.085177
    12 y      -0.215043  0.020048 -0.217809 -0.142321 -0.165126  0.100305
    12 z       0.027152 -0.024971  0.078069  0.042990  0.052418 -0.063172


  Frequency     422.0482  437.9962  469.2706  480.4654  532.0877  585.7697
  IR Intensity    0.1651    0.4156    0.2061    0.6961    0.0122    0.0054
     in X         0.1362    0.0797    0.0204    0.4033    0.0071    0.0005
     in Y         0.0093    0.3016    0.0049    0.2767    0.0048    0.0001
     in Z         0.0196    0.0344    0.1808    0.0160    0.0003    0.0047
  Raman Intsty    0.0251    0.0485    0.0000    0.0511    1.0815    0.0000

     1 x      -0.020329  0.267682 -0.411868 -0.397122 -0.118516  0.015149
     1 y       0.185300 -0.263480 -0.250812 -0.331627  0.152828  0.181808
     1 z       0.203406 -0.062967 -0.194162  0.059969 -0.530373 -0.413788
     2 x      -0.500884  0.045093 -0.026346 -0.138209 -0.260718  0.229798
     2 y      -0.196234 -0.491317  0.012942 -0.099460 -0.239759 -0.112887
     2 z       0.135935 -0.096267 -0.078395  0.030028  0.048037  0.683784
     3 x      -0.118173  0.226127  0.240225 -0.386075  0.232486 -0.273766
     3 y       0.233366 -0.243068  0.335129 -0.337055 -0.019600 -0.054764
     3 z      -0.087741 -0.186613 -0.316576  0.092845  0.514066 -0.355749
     4 x      -0.057814 -0.088173 -0.225921  0.264256 -0.077861  0.085105
     4 y      -0.107588  0.011933 -0.204122  0.225834 -0.041705  0.057016
     4 z       0.004163  0.029694  0.050154 -0.039426 -0.047707  0.020573
     5 x       0.106954 -0.129242  0.022873  0.045050  0.000140 -0.041109
     5 y      -0.019262  0.180755  0.004481  0.040879 -0.000849  0.040043
     5 z      -0.277864  0.043431  0.040545 -0.107607  0.107423 -0.013179
     6 x       0.003762 -0.044304 -0.090519  0.087979  0.018302  0.006575
     6 y      -0.107313  0.034995 -0.202716  0.149162  0.101154 -0.040599
     6 z       0.114282  0.053567  0.276278 -0.171461 -0.190679  0.096194
     7 x       0.169777 -0.057527 -0.007953  0.076801 -0.024086 -0.027726
     7 y      -0.049422  0.213174 -0.000536  0.037775 -0.034080  0.031890
     7 z       0.083958  0.275867  0.052201  0.078918 -0.140494 -0.006540
     8 x       0.343788  0.127472  0.009354  0.058354  0.162931 -0.018795
     8 y       0.288733  0.242949 -0.004594  0.052975  0.165815  0.009233
     8 z      -0.067869 -0.002731  0.027831 -0.010865 -0.027381 -0.055927
     9 x       0.247689 -0.111649  0.005123  0.103537 -0.063296  0.021299
     9 y      -0.088397  0.172113 -0.018234  0.012147  0.030313 -0.030311
     9 z       0.140906  0.095781  0.042760  0.066426 -0.081335 -0.045767
    10 x       0.081840 -0.188005  0.037202  0.018741  0.060189  0.015275
    10 y      -0.006223  0.277270 -0.013832  0.066297 -0.075479 -0.025773
    10 z      -0.177706 -0.112383  0.034831 -0.093846  0.110273 -0.030511
    11 x      -0.074795 -0.063699  0.255178  0.186140  0.136924  0.055384
    11 y      -0.068722  0.044523  0.121829  0.100941  0.042882  0.010162
    11 z      -0.119472 -0.004143  0.213680  0.120627  0.162291  0.088171
    12 x      -0.059285 -0.087049  0.230595  0.257123 -0.038372 -0.061666
    12 y      -0.106866  0.011380  0.201827  0.229337 -0.061105 -0.068530
    12 z      -0.000214  0.033041 -0.036247 -0.060647  0.069797  0.049171




--------------------------------------------------------------------------------
  Vibrational properties (for cluster):  Temperature  =       0.000 K
--------------------------------------------------------------------------------
  Zero point energy            =        0.514561 eV
--------------------------------------------------------------------------------

  Phonon density of states : 

--------------------------------------------------------------------------------
 Frequency (cm-1) Density of States                                             
--------------------------------------------------------------------------------
    0.00000 |******************************                                0.065
    9.15265 |                                                              0.000
   18.30531 |                                                              0.000
   27.45796 |                                                              0.000
   36.61061 |                                                              0.000
   45.76327 |                                                              0.000
   54.91592 |                                                              0.000
   64.06857 |                                                              0.000
   73.22122 |                                                              0.000
   82.37388 |                                                              0.000
   91.52653 |                                                              0.000
  100.67918 |                                                              0.000
  109.83184 |                                                              0.000
  118.98449 |                                                              0.000
  128.13714 |                                                              0.000
  137.28980 |******************************                                0.065
  146.44245 |************************************************************  0.129
  155.59510 |*********************************************                 0.097
  164.74775 |                                                              0.000
  173.90041 |******************************                                0.065
  183.05306 |                                                              0.000
  192.20571 |******************************                                0.065
  201.35837 |                                                              0.000
  210.51102 |                                                              0.000
  219.66367 |***************                                               0.032
  228.81633 |                                                              0.000
  237.96898 |                                                              0.000
  247.12163 |                                                              0.000
  256.27428 |***************                                               0.032
  265.42694 |                                                              0.000
  274.57959 |                                                              0.000
  283.73224 |***************                                               0.032
  292.88490 |***************                                               0.032
  302.03755 |                                                              0.000
  311.19020 |                                                              0.000
  320.34286 |***************                                               0.032
  329.49551 |                                                              0.000
  338.64816 |                                                              0.000
  347.80081 |                                                              0.000
  356.95347 |******************************                                0.065
  366.10612 |***************                                               0.032
  375.25877 |***************                                               0.032
  384.41143 |***************                                               0.032
  393.56408 |                                                              0.000
  402.71673 |                                                              0.000
  411.86939 |                                                              0.000
  421.02204 |***************                                               0.032
  430.17469 |***************                                               0.032
  439.32734 |                                                              0.000
  448.48000 |                                                              0.000
  457.63265 |                                                              0.000
  466.78530 |***************                                               0.032
  475.93796 |***************                                               0.032
  485.09061 |                                                              0.000
  494.24326 |                                                              0.000
  503.39592 |                                                              0.000
  512.54857 |                                                              0.000
  521.70122 |                                                              0.000
  530.85387 |***************                                               0.032
  540.00653 |                                                              0.000
  549.15918 |                                                              0.000
  558.31183 |                                                              0.000
  567.46449 |                                                              0.000
  576.61714 |***************                                               0.032
--------------------------------------------------------------------------------



  XYZ File written as 001/2/sp_mod_20/sp_mod_20_eig.xyz


  Time to end of properties =       0.0129 seconds


  Peak dynamic memory used =       0.64 MB 


  Timing analysis for GULP :

--------------------------------------------------------------------------------
  Task / Subroutine                                          Time (Seconds)
--------------------------------------------------------------------------------
  Calculation of phonons                                          0.0038
--------------------------------------------------------------------------------
  Total CPU time                                                  0.0129
--------------------------------------------------------------------------------


  Job Finished at 10:29.33 17th May        2022                               

