********************************************************************************
*                       GENERAL UTILITY LATTICE PROGRAM                        *
*                                 Julian Gale                                  *
*                       Curtin Institute for Computation                       *
*                           Department of Chemistry                            *
*                    Curtin University, Western Australia                      *
********************************************************************************
* Version = 5.1.1 * Last modified =  24th November 2018                        *
********************************************************************************
*  optimise     - perform optimisation run                                     *
*  conp         - constant pressure calculation                                *
*  shell        - only shells and radii to be optimised                        *
*  phonon       - calculate phonons for final geometry                         *
*  eigenvectors - output phonon eigenvectors                                   *
********************************************************************************

  Job Started  at 14:38.57 25th May        2022                               

  Number of CPUs =     1

  Host name      = login03                                 


  Total number of configurations input =      1

********************************************************************************
*  Input for Configuration =   1                                               *
********************************************************************************

  Formula = Al3F9                                                       

  Number of irreducible atoms/shells =      21


  Total number atoms/shells =      21

  Dimensionality = 0               :  Cluster


  Charge on cluster =  -0.000000


  Initial cluster dipoles : x =     -0.018341 e.Angs
                            y =     -0.034056 e.Angs
                            z =      0.128901 e.Angs

  Temperature of configuration =  0.000     K 

  Symmetry number =      1

  Cartesian coordinates of cluster :

--------------------------------------------------------------------------------
   No.  Atomic       x           y          z         Charge      Occupancy
        Label      (Angs)      (Angs)     (Angs)        (e)         (Frac)  
--------------------------------------------------------------------------------
      1 Al    c      0.3591     -0.6550      1.6800     3.00000    1.000000    
      2 Al    c      2.2691     -1.7652     -0.4956     3.00000    1.000000    
      3 Al    c     -0.8222     -1.8049     -0.9460     3.00000    1.000000    
      4 F     c      3.4211     -0.5717     -1.0814     0.59000    1.000000    
      5 F     c     -1.7890     -0.6386     -1.8404     0.59000    1.000000    
      6 F     c      2.7243     -3.4700     -0.4960     0.59000    1.000000    
      7 F     c     -1.2155     -3.5205     -1.0700     0.59000    1.000000    
      8 F     c      1.8553     -1.3973      1.1579     0.59000    1.000000    
      9 F     c      0.8225     -1.5370     -1.4231     0.59000    1.000000    
     10 F     c      0.1214     -1.1347      3.3540     0.59000    1.000000    
     11 F     c      0.4027      1.0617      1.2296     0.59000    1.000000    
     12 F     c     -0.9067     -1.4328      0.7556     0.59000    1.000000    
     13 F     s      3.4211 *   -0.5717 *   -1.0814 *  -1.59000    1.000000    
     14 F     s     -1.7890 *   -0.6386 *   -1.8404 *  -1.59000    1.000000    
     15 F     s      2.7243 *   -3.4700 *   -0.4960 *  -1.59000    1.000000    
     16 F     s     -1.2155 *   -3.5205 *   -1.0700 *  -1.59000    1.000000    
     17 F     s      1.8553 *   -1.3973 *    1.1579 *  -1.59000    1.000000    
     18 F     s      0.8225 *   -1.5370 *   -1.4231 *  -1.59000    1.000000    
     19 F     s      0.1214 *   -1.1347 *    3.3540 *  -1.59000    1.000000    
     20 F     s      0.4027 *    1.0617 *    1.2296 *  -1.59000    1.000000    
     21 F     s     -0.9067 *   -1.4328 *    0.7556 *  -1.59000    1.000000    
--------------------------------------------------------------------------------


  Brillouin zone sampling points :

--------------------------------------------------------------------------------
  Point number          x          y          z            Weight
--------------------------------------------------------------------------------
        1           0.000000   0.000000   0.000000     1.00000000
--------------------------------------------------------------------------------


********************************************************************************
*  General input information                                                   *
********************************************************************************

  Species output for all configurations : 

--------------------------------------------------------------------------------
  Species    Type    Atomic    Atomic    Charge       Radii (Angs)     Library
                     Number     Mass       (e)     Cova   Ionic  VDW   Symbol
--------------------------------------------------------------------------------
    Al       Core       13      26.98   3.000000   1.350  0.000  2.050          
    F        Core        9      19.00   0.590000   0.710  0.000  1.300          
    F        Shell       9       0.00  -1.590000   0.710  0.000  1.300          
--------------------------------------------------------------------------------


  Accuracy factor for short range sums = 12.000

  Time limit = Infinity

  Maximum range for interatomic potentials =    100000.000000 Angstroms

  General interatomic potentials :

--------------------------------------------------------------------------------
Atom  Types   Potential      Parameter       Value         Units   Cutoffs(Ang)
  1     2                                                            Min /  Max 
--------------------------------------------------------------------------------
Al   c F    s Buckingham    Buckingham A     3760.0008    eV        0.000 10.000
                            Buckingham rho  0.22200000    Ang       
                            Buckingham C     0.0000000    eV*Ang^6  
--------------------------------------------------------------------------------
F    s F    s Buck 4 range  Buck4 A          1127.7000    eV        0.000 12.000
                            Buck4 rho       0.27530000    Ang       
                            Buck4 C          15.830000    eV*Ang^6  
                            Buck4 minimum    2.7900000    Ang       
--------------------------------------------------------------------------------
F    c F    s Spring (c-s)  Spring k 2       20.770000    eV*Ang^-2 0.000  0.800
                            Spring k 4       0.0000000    eV*Ang^-4 
--------------------------------------------------------------------------------

********************************************************************************
*  Output for configuration   1                                                *
********************************************************************************


  Components of energy : 

--------------------------------------------------------------------------------
  Interatomic potentials     =          16.32643554 eV    
  Monopole - monopole (real) =        -188.99458444 eV    
--------------------------------------------------------------------------------
  Total lattice energy       =        -172.66814890 eV    
--------------------------------------------------------------------------------
  Total lattice energy       =          -16659.8369 kJ/mol
--------------------------------------------------------------------------------


  Number of variables =       27

  Maximum number of calculations  =          2000
  Maximum Hessian update interval =            10
  Maximum step size               =   1.000000000
  Maximum parameter tolerance     =   0.000001000
  Maximum function  tolerance     =   0.000010000
  Maximum gradient  tolerance     =   0.000000010
  Maximum gradient  component     =   0.010000000

  Symmetry not applied to optimisation

  Newton-Raphson optimiser to be used

  BFGS hessian update to be used

  Lower half triangular hessian to be used

  Minimiser to switch to RFO
  When gradient norm is less than     0.010000

  Shell only optimisation

  Start of cluster optimisation :

  Cycle:      0 Energy:      -172.668149  Gnorm:      1.328712  CPU:    0.004
  ** Hessian calculated **
  Cycle:      1 Energy:      -185.580956  Gnorm:      0.446197  CPU:    0.005
  ** Hessian calculated **
  Cycle:      2 Energy:      -186.451368  Gnorm:      0.016862  CPU:    0.008
  Cycle:      3 Energy:      -186.452941  Gnorm:      0.001279  CPU:    0.009
  ** Hessian has required structure
  Cycle:      4 Energy:      -186.452951  Gnorm:      0.000281  CPU:    0.011
  ** Hessian has required structure
  Cycle:      5 Energy:      -186.452951  Gnorm:      0.000218  CPU:    0.012
  ** Hessian has required structure
  Cycle:      6 Energy:      -186.452952  Gnorm:      0.000058  CPU:    0.014
  ** Hessian has required structure
  Cycle:      7 Energy:      -186.452952  Gnorm:      0.000036  CPU:    0.015
  ** Hessian has required structure
  Cycle:      8 Energy:      -186.452952  Gnorm:      0.000025  CPU:    0.017
  ** Hessian has required structure
  Cycle:      9 Energy:      -186.452952  Gnorm:      0.000006  CPU:    0.018
  ** Hessian has required structure
  Cycle:     10 Energy:      -186.452952  Gnorm:      0.000004  CPU:    0.020
  ** Hessian has required structure
  Cycle:     11 Energy:      -186.452952  Gnorm:      0.000004  CPU:    0.021
  ** Hessian has required structure
  Cycle:     12 Energy:      -186.452952  Gnorm:      0.000002  CPU:    0.023
  ** Hessian has required structure

  XYZ File written as 002/4/sp_mod_30/sp_mod_30_eig.xyz



  **** Optimisation achieved ****


  Final energy =    -186.45295155 eV
  Final Gnorm  =       0.00000000

  Components of energy : 

--------------------------------------------------------------------------------
  Interatomic potentials     =          41.27448656 eV    
  Monopole - monopole (real) =        -227.72743811 eV    
--------------------------------------------------------------------------------
  Total lattice energy       =        -186.45295155 eV    
--------------------------------------------------------------------------------
  Total lattice energy       =          -17989.8596 kJ/mol
--------------------------------------------------------------------------------

  Final cartesian coordinates of atoms :

--------------------------------------------------------------------------------
   No.  Atomic        x           y          z          Radius
        Label       (Angs)      (Angs)     (Angs)       (Angs) 
--------------------------------------------------------------------------------
     1  Al    c     0.359141   -0.654973    1.680012    0.000000
     2  Al    c     2.269050   -1.765171   -0.495626    0.000000
     3  Al    c    -0.822233   -1.804872   -0.945970    0.000000
     4  F     c     3.421102   -0.571681   -1.081360    0.000000
     5  F     c    -1.788962   -0.638592   -1.840371    0.000000
     6  F     c     2.724345   -3.469951   -0.495990    0.000000
     7  F     c    -1.215485   -3.520549   -1.069951    0.000000
     8  F     c     1.855284   -1.397345    1.157945    0.000000
     9  F     c     0.822536   -1.536988   -1.423099    0.000000
    10  F     c     0.121430   -1.134732    3.354022    0.000000
    11  F     c     0.402714    1.061665    1.229585    0.000000
    12  F     c    -0.906747   -1.432817    0.755567    0.000000
    13  F     s     3.255883   -0.721984   -1.000315    0.000000
    14  F     s    -1.650001   -0.784989   -1.715013    0.000000
    15  F     s     2.646976   -3.243651   -0.490041    0.000000
    16  F     s    -1.148744   -3.292399   -1.043008    0.000000
    17  F     s     1.711222   -1.356070    1.015578    0.000000
    18  F     s     0.795948   -1.590142   -1.235908    0.000000
    19  F     s     0.154294   -1.082311    3.123814    0.000000
    20  F     s     0.399821    0.819909    1.270759    0.000000
    21  F     s    -0.729145   -1.387411    0.660061    0.000000
--------------------------------------------------------------------------------


  Final Cartesian derivatives :

--------------------------------------------------------------------------------
   No.  Atomic          x             y             z           Radius
        Label       (eV/Angs)     (eV/Angs)    (eV/Angs)      (eV/Angs)
--------------------------------------------------------------------------------
      1 Al    c       0.000000      0.000000      0.000000      0.000000
      2 Al    c       0.000000      0.000000      0.000000      0.000000
      3 Al    c       0.000000      0.000000      0.000000      0.000000
      4 F     c       0.000000      0.000000      0.000000      0.000000
      5 F     c       0.000000      0.000000      0.000000      0.000000
      6 F     c       0.000000      0.000000      0.000000      0.000000
      7 F     c       0.000000      0.000000      0.000000      0.000000
      8 F     c       0.000000      0.000000      0.000000      0.000000
      9 F     c       0.000000      0.000000      0.000000      0.000000
     10 F     c       0.000000      0.000000      0.000000      0.000000
     11 F     c       0.000000      0.000000      0.000000      0.000000
     12 F     c       0.000000      0.000000      0.000000      0.000000
     13 F     s      -0.000000     -0.000000      0.000000      0.000000
     14 F     s      -0.000000     -0.000000     -0.000000      0.000000
     15 F     s      -0.000000      0.000000      0.000000      0.000000
     16 F     s       0.000000      0.000000      0.000000      0.000000
     17 F     s      -0.000000      0.000000     -0.000000      0.000000
     18 F     s       0.000000     -0.000000      0.000000      0.000000
     19 F     s       0.000000      0.000000     -0.000000      0.000000
     20 F     s      -0.000000     -0.000000      0.000000      0.000000
     21 F     s       0.000000      0.000000     -0.000000      0.000000
--------------------------------------------------------------------------------
  Maximum abs         0.000000      0.000000      0.000000      0.000000
--------------------------------------------------------------------------------


  Born effective charge tensors : 

-------------------------------------------------------------------------------
  Atom             x           y             z
-------------------------------------------------------------------------------
    1 Al    x       1.1663     -0.0455      0.0398
            y      -0.0491      0.6521      0.3825
            z       0.0401      0.3583      0.8645
-------------------------------------------------------------------------------
    2 Al    x       1.1215     -0.1477      0.0364
            y      -0.1592      0.4390      0.1623
            z       0.0327      0.1728      1.1120
-------------------------------------------------------------------------------
    3 Al    x       1.1342      0.1096     -0.0336
            y       0.1236      0.4459      0.2026
            z      -0.0302      0.2094      1.0924
-------------------------------------------------------------------------------
    4 F     x      -0.3050      0.3022     -0.1228
            y       0.2695     -0.2357     -0.1431
            z      -0.1224     -0.1580     -0.4814
-------------------------------------------------------------------------------
    5 F     x      -0.3747     -0.2475      0.1573
            y      -0.2204     -0.2491     -0.2107
            z       0.1574     -0.2343     -0.3984
-------------------------------------------------------------------------------
    6 F     x      -0.5489     -0.1556      0.0058
            y      -0.1145      0.0466     -0.0180
            z       0.0055     -0.0038     -0.5393
-------------------------------------------------------------------------------
    7 F     x      -0.5513      0.1351     -0.0084
            y       0.0998      0.0530      0.0130
            z      -0.0086      0.0384     -0.5434
-------------------------------------------------------------------------------
    8 F     x      -0.2213     -0.0488     -0.0964
            y      -0.0556     -0.2177      0.0230
            z      -0.0945      0.0121     -0.1660
-------------------------------------------------------------------------------
    9 F     x      -0.0644      0.0102      0.0354
            y       0.0098     -0.2387     -0.0514
            z       0.0355     -0.0541     -0.2979
-------------------------------------------------------------------------------
   10 F     x      -0.5400      0.0281     -0.0806
            y       0.0241     -0.4816     -0.1713
            z      -0.0802     -0.1992      0.0169
-------------------------------------------------------------------------------
   11 F     x      -0.5450      0.0176      0.0024
            y       0.0263      0.0014     -0.2288
            z       0.0017     -0.1691     -0.5409
-------------------------------------------------------------------------------
   12 F     x      -0.2713      0.0422      0.0646
            y       0.0457     -0.2152      0.0399
            z       0.0630      0.0275     -0.1185
-------------------------------------------------------------------------------




  Moment of inertia tensor (10^-46 x kgm^2): 

-------------------------------------------------------------------------------
                x           y           z           Principal axis system
-------------------------------------------------------------------------------
       x        143.92        2.91       -1.71          143.707556
       y          2.91      191.69      -24.21          145.075729
       z         -1.71      -24.21      157.61          204.441638
-------------------------------------------------------------------------------
  Centre of mass (Ang) =     0.603369    -1.405770     0.069751
-------------------------------------------------------------------------------


  Vibrational Frequency Calculation : 

--------------------------------------------------------------------------------

  Frequencies (cm-1) and Eigenvectors : 

  Frequency    -123.6808 -122.1132 -109.8140  -86.9598  -84.9097  -80.3488
  IR Intensity    0.0003    0.0002    0.0037    0.0001    0.0004    0.0000
     in X         0.0003    0.0000    0.0000    0.0001    0.0000    0.0000
     in Y         0.0000    0.0001    0.0018    0.0000    0.0000    0.0000
     in Z         0.0000    0.0001    0.0019    0.0000    0.0003    0.0000
  Raman Intsty    0.0000    0.0518    0.0071    0.0000    0.0086    0.0000

     1 x       0.017835 -0.003085 -0.003482 -0.088993 -0.016124 -0.289761
     1 y       0.000229  0.084508  0.058961 -0.001142 -0.259198 -0.003721
     1 z       0.002598  0.013728  0.018700 -0.012965  0.133525 -0.042213
     2 x      -0.005986  0.029964 -0.022761  0.027093  0.014264  0.109467
     2 y      -0.026745 -0.034993 -0.028771 -0.202843  0.126285  0.170469
     2 z       0.005157 -0.001768 -0.043734  0.191557 -0.079193  0.223683
     3 x      -0.004936 -0.027325  0.035007  0.075502  0.005748  0.172978
     3 y       0.026605 -0.035729 -0.028029  0.204160  0.126177 -0.166842
     3 z      -0.006748 -0.010114 -0.035319 -0.176610 -0.080434 -0.182536
     4 x      -0.081475 -0.172238  0.167428  0.224629 -0.039505  0.025582
     4 y       0.163204  0.071215 -0.253514 -0.331673  0.230684  0.217591
     4 z       0.232902 -0.185453 -0.143295  0.215792  0.093680  0.216320
     5 x      -0.007522  0.216137 -0.113164  0.268438  0.005328  0.091690
     5 y      -0.164346  0.076201 -0.257118  0.338004  0.231262 -0.216085
     5 z      -0.245865 -0.128876 -0.184173 -0.143961  0.100210 -0.199236
     6 x       0.145911  0.293644 -0.289099 -0.230970  0.096165  0.214161
     6 y       0.018540  0.042707 -0.094074 -0.233242  0.125878  0.172616
     6 z      -0.232017  0.256008  0.137589  0.171179 -0.250381  0.204874
     7 x       0.074083 -0.355448  0.240109 -0.178332 -0.023879  0.267976
     7 y      -0.015715  0.034371 -0.087277  0.227985  0.124337 -0.166424
     7 z       0.264064  0.161449  0.214685 -0.230806 -0.267870 -0.134635
     8 x      -0.191216  0.006400  0.068524 -0.067093  0.000695 -0.110932
     8 y      -0.454320  0.191932  0.310358 -0.068551 -0.070350  0.137744
     8 z       0.056491 -0.075523 -0.102076  0.113808 -0.038941  0.137082
     9 x       0.001133  0.024034  0.001343  0.142095  0.005527  0.171866
     9 y       0.000016 -0.606433  0.227156  0.001824  0.106930  0.002207
     9 z       0.000165 -0.111514 -0.029243  0.020701 -0.047362  0.025038
    10 x      -0.158962  0.008477  0.015852 -0.257746  0.005072 -0.308028
    10 y      -0.002041 -0.136844 -0.301614 -0.003309 -0.553031 -0.003956
    10 z      -0.023158 -0.046130 -0.082226 -0.037549  0.013934 -0.044874
    11 x       0.388328 -0.031057 -0.057095  0.116313 -0.066247 -0.279879
    11 y       0.004987  0.118434  0.144598  0.001494 -0.117481 -0.003594
    11 z       0.056571  0.202754  0.379174  0.016943  0.465098 -0.040774
    12 x      -0.178518  0.010584 -0.044341 -0.033542  0.012211 -0.063718
    12 y       0.449570  0.191989  0.308909  0.067259 -0.070201 -0.139987
    12 z      -0.110354 -0.074914 -0.118518 -0.128469 -0.037264 -0.162525


  Frequency      -0.0000    0.0000    0.0000   74.4333   97.5336  108.4779
  IR Intensity    0.0000    0.0000    0.0000    0.0006    0.0081    0.0072
     in X         0.0000    0.0000    0.0000    0.0005    0.0002    0.0071
     in Y         0.0000    0.0000    0.0000    0.0000    0.0002    0.0000
     in Z         0.0000    0.0000    0.0000    0.0000    0.0077    0.0002
  Raman Intsty    0.0000    0.0000    0.0000    0.0000    0.0031    0.0000

     1 x      -0.113884  0.075899  0.297252  0.076029 -0.005112 -0.115154
     1 y       0.266246 -0.133079  0.135985  0.000976  0.187610 -0.001479
     1 z      -0.152421 -0.289168  0.015439  0.011076  0.018554 -0.016776
     2 x      -0.113884  0.075899  0.297252 -0.023089 -0.082990 -0.006334
     2 y       0.266246 -0.133079  0.135985  0.010755 -0.048655 -0.151322
     2 z      -0.152421 -0.289168  0.015439  0.023854 -0.093677 -0.000227
     3 x      -0.113884  0.075899  0.297252 -0.015047  0.107460 -0.009939
     3 y       0.266246 -0.133079  0.135985 -0.011244 -0.046210  0.151113
     3 z      -0.152421 -0.289168  0.015439 -0.029409 -0.065932 -0.002144
     4 x      -0.095570  0.063693  0.249448 -0.179266  0.141468 -0.091177
     4 y       0.223429 -0.111677  0.114116 -0.022251  0.001155 -0.108352
     4 z      -0.127909 -0.242665  0.012956 -0.358312  0.423156 -0.124661
     5 x      -0.095570  0.063693  0.249448 -0.274529 -0.256283 -0.125644
     5 y       0.223429 -0.111677  0.114116  0.016423 -0.003953  0.105567
     5 z      -0.127909 -0.242665  0.012956  0.292200  0.365212  0.093074
     6 x      -0.095570  0.063693  0.249448  0.090197 -0.108645  0.260100
     6 y       0.223429 -0.111677  0.114116  0.038170 -0.053341 -0.057063
     6 z      -0.127909 -0.242665  0.012956  0.267502 -0.056298  0.363915
     7 x      -0.095570  0.063693  0.249448  0.163688  0.121496  0.351584
     7 y       0.223429 -0.111677  0.114116 -0.034909 -0.050385  0.064919
     7 z      -0.127909 -0.242665  0.012956 -0.230516 -0.022772 -0.274804
     8 x      -0.095570  0.063693  0.249448  0.103213 -0.178286 -0.267687
     8 y       0.223429 -0.111677  0.114116 -0.010557 -0.013356 -0.218847
     8 z      -0.127909 -0.242665  0.012956  0.071932 -0.145726 -0.076474
     9 x      -0.095570  0.063693  0.249448 -0.004996  0.071480  0.016932
     9 y       0.223429 -0.111677  0.114116 -0.000064 -0.301269  0.000217
     9 z      -0.127909 -0.242665  0.012956 -0.000727 -0.464099  0.002466
    10 x      -0.095570  0.063693  0.249448 -0.512710 -0.002395  0.433884
    10 y       0.223429 -0.111677  0.114116 -0.006585  0.125540  0.005572
    10 z      -0.127909 -0.242665  0.012956 -0.074693  0.005367  0.063209
    11 x      -0.095570  0.063693  0.249448  0.450106 -0.024628 -0.137585
    11 y       0.223429 -0.111677  0.114116  0.005780  0.193426 -0.001767
    11 z      -0.127909 -0.242665  0.012956  0.065572  0.152009 -0.020043
    12 x      -0.095570  0.063693  0.249448  0.119144  0.212726 -0.283794
    12 y       0.223429 -0.111677  0.114116  0.013412 -0.008335  0.211765
    12 z      -0.127909 -0.242665  0.012956 -0.039539 -0.088763 -0.003866


  Frequency     144.6782  149.3744  152.6219  156.5224  168.2957  175.5001
  IR Intensity    0.0008    0.0007    0.0100    0.0016    0.0001    0.0134
     in X         0.0000    0.0007    0.0000    0.0015    0.0000    0.0003
     in Y         0.0007    0.0000    0.0089    0.0000    0.0000    0.0002
     in Z         0.0001    0.0000    0.0012    0.0000    0.0001    0.0130
  Raman Intsty    0.0258    0.0000    0.0089    0.0000    0.1110    0.0000

     1 x      -0.025279 -0.125328 -0.001697 -0.154501  0.015773 -0.023183
     1 y      -0.168525 -0.001610  0.139123 -0.001984  0.112159 -0.244172
     1 z       0.188373 -0.018258 -0.000615 -0.022508 -0.118160  0.180662
     2 x      -0.102967  0.079778 -0.033817  0.058355 -0.043103  0.009852
     2 y       0.141182  0.025380 -0.167093  0.335245 -0.071442  0.097805
     2 z      -0.108297 -0.134459  0.038154 -0.059335  0.044790  0.046486
     3 x       0.125998  0.038719  0.025719  0.047416  0.030318 -0.025161
     3 y       0.144123 -0.023858 -0.166327 -0.333887 -0.070501  0.097356
     3 z      -0.074941  0.151722  0.046828  0.074744  0.055486  0.041386
     4 x      -0.103699  0.306938 -0.316846  0.259886 -0.344794  0.022875
     4 y       0.066794 -0.245267  0.022598  0.072527  0.263823  0.019936
     4 z      -0.230146 -0.195896 -0.186876 -0.078282  0.105216 -0.061942
     5 x       0.163329  0.232030  0.356318  0.228495  0.293706 -0.004748
     5 y       0.070225  0.252188  0.031245 -0.066256  0.272024  0.019582
     5 z      -0.191244  0.274415 -0.088808  0.149429  0.198235 -0.065967
     6 x      -0.215693  0.245119 -0.078291 -0.300970 -0.325211 -0.256461
     6 y       0.086700  0.067659 -0.157730  0.195176 -0.138170  0.013759
     6 z       0.290147 -0.230056 -0.257628  0.162837  0.057793 -0.260008
     7 x       0.121712  0.170926  0.152471 -0.237006  0.298579  0.319545
     7 y       0.091033 -0.062315 -0.154765 -0.202085 -0.130160  0.021156
     7 z       0.339302  0.290665 -0.224007 -0.241211  0.148667 -0.176095
     8 x      -0.143724 -0.197919 -0.100701 -0.201573  0.051350  0.188376
     8 y      -0.231600  0.009770 -0.086352 -0.063838  0.061006  0.258963
     8 z      -0.046841 -0.208492  0.012099 -0.060754  0.044762  0.052943
     9 x       0.059866 -0.008567 -0.011411 -0.038747  0.003801  0.009443
     9 y       0.093505 -0.000111  0.065120 -0.000497 -0.039614 -0.453589
     9 z      -0.419179 -0.001247  0.072589 -0.005645 -0.022598 -0.024836
    10 x      -0.034775 -0.354597 -0.014546  0.209247  0.038522 -0.042552
    10 y       0.094443 -0.004555  0.355498  0.002689 -0.357418  0.192817
    10 z       0.230375 -0.051659  0.068499  0.030484 -0.232915  0.275086
    11 x      -0.001228 -0.136929 -0.070525  0.350803  0.043990  0.011491
    11 y      -0.182521 -0.001759  0.239753  0.004506  0.044471 -0.268170
    11 z       0.024514 -0.019949  0.462957  0.051107 -0.305878 -0.055234
    12 x       0.156890 -0.248860  0.095203 -0.212067 -0.063504 -0.202102
    12 y      -0.227739 -0.015507 -0.083836  0.058525  0.059531  0.253948
    12 z      -0.003047  0.143405  0.040639  0.000494  0.028030 -0.003942


  Frequency     180.4546  197.8242  208.1145  232.8884  236.3963  297.1761
  IR Intensity    0.0047    0.0448    0.0990    0.1021    0.0659    0.0004
     in X         0.0046    0.0439    0.0012    0.0999    0.0014    0.0000
     in Y         0.0000    0.0000    0.0526    0.0000    0.0008    0.0000
     in Z         0.0001    0.0009    0.0452    0.0021    0.0637    0.0004
  Raman Intsty    0.0000    0.0000    0.0000    0.0000    0.0009    0.2089

     1 x       0.216449  0.309553  0.015309  0.011362  0.049752  0.034026
     1 y       0.002780  0.003976 -0.313912  0.000146 -0.117855 -0.038774
     1 z       0.031532  0.045097 -0.077413  0.001656 -0.331122 -0.230143
     2 x      -0.134983  0.082592  0.016430  0.352777  0.198095 -0.133866
     2 y      -0.041079  0.107134 -0.179522 -0.133878  0.110632  0.023160
     2 z      -0.326140 -0.077056 -0.159377 -0.069302 -0.102623  0.071280
     3 x      -0.223398  0.059846  0.034238  0.314868 -0.163305  0.107344
     3 y       0.036476 -0.105304 -0.179294  0.142452  0.105991  0.026257
     3 z       0.273930  0.097807 -0.156782  0.166567 -0.155272  0.106420
     4 x       0.094991  0.096336 -0.124201 -0.098215  0.170922 -0.038093
     4 y       0.060693  0.053263  0.143318  0.293456  0.178106 -0.103410
     4 z       0.331085 -0.116484  0.199233 -0.072772  0.011781  0.017071
     5 x       0.186986  0.060413  0.058561 -0.107480 -0.171604  0.034228
     5 y      -0.057072 -0.051251  0.145664 -0.296099  0.173706 -0.102481
     5 z      -0.290007  0.139319  0.225859  0.042806 -0.038118  0.027607
     6 x       0.079316 -0.150217  0.126432 -0.166949 -0.207211  0.060846
     6 y       0.018099  0.032644 -0.134733 -0.263786 -0.002467  0.078878
     6 z       0.281212  0.102115  0.168728  0.012563  0.158658 -0.010206
     7 x       0.156668 -0.113974 -0.165881 -0.163008  0.153334 -0.057370
     7 y      -0.015068 -0.036037 -0.138487  0.259549  0.002165  0.077360
     7 z      -0.246832 -0.140604  0.126143 -0.060633  0.211183 -0.027428
     8 x       0.075674  0.139797  0.198867 -0.148246  0.114916  0.369072
     8 y       0.051267 -0.407028  0.205198  0.060759 -0.223236 -0.070950
     8 z      -0.274543  0.107978 -0.182992 -0.286565 -0.000679  0.355510
     9 x      -0.269258  0.012086  0.001872  0.263397 -0.044541  0.068925
     9 y      -0.003457  0.000155  0.306541  0.003383 -0.261293  0.052623
     9 z      -0.039226  0.001761 -0.039874  0.038371  0.328779 -0.477758
    10 x      -0.197435 -0.193930 -0.017496 -0.144158  0.031805  0.030312
    10 y      -0.002536 -0.002491  0.313011 -0.001852  0.193731  0.072414
    10 z      -0.028763 -0.028252  0.092501 -0.021000 -0.235401 -0.214452
    11 x       0.046712 -0.543629 -0.013278 -0.022217 -0.044070 -0.023617
    11 y       0.000600 -0.006982 -0.239666 -0.000285  0.047645  0.064394
    11 z       0.006805 -0.079197  0.112266 -0.003238  0.298305  0.156434
    12 x      -0.004522  0.154509 -0.143498 -0.222255 -0.104297 -0.453244
    12 y      -0.050354  0.410808  0.200802 -0.065516 -0.226052 -0.081511
    12 z       0.284909 -0.065103 -0.232868  0.232590 -0.032613  0.235713


  Frequency     494.5882  536.3521  542.2400  676.4443  679.3186  733.8409
  IR Intensity    0.0001    0.0116    0.0115    0.0306    0.0292    0.0027
     in X         0.0000    0.0002    0.0113    0.0006    0.0286    0.0026
     in Y         0.0000    0.0004    0.0000    0.0002    0.0000    0.0000
     in Z         0.0001    0.0110    0.0002    0.0298    0.0006    0.0001
  Raman Intsty    6.5900    0.0000    0.0000    0.0000    0.0000    0.0000

     1 x       0.027053  0.015428 -0.365696  0.020436  0.579861 -0.327956
     1 y      -0.145794 -0.087676 -0.004697 -0.177494  0.007447 -0.004213
     1 z      -0.172845 -0.098172 -0.053275 -0.124644  0.084475 -0.047778
     2 x      -0.209205  0.180903  0.022300  0.247719 -0.040543  0.010798
     2 y       0.059755  0.014615 -0.046084  0.020258  0.075647  0.115812
     2 z       0.076248  0.275182 -0.210940  0.431557  0.297994  0.343250
     3 x       0.177190 -0.252193 -0.039966 -0.360962  0.048061  0.111174
     3 y       0.064718  0.009053  0.045857  0.012441 -0.075550 -0.114246
     3 z       0.132539  0.212087  0.208366  0.342885 -0.296896 -0.325481
     4 x      -0.225798  0.126400  0.213194 -0.052237  0.102971  0.023412
     4 y      -0.255368  0.137248  0.220130 -0.045230  0.096285  0.022941
     4 z       0.116459 -0.086009 -0.097250  0.013017 -0.059440 -0.013997
     5 x       0.189542 -0.100023  0.182059  0.047473  0.084124  0.019016
     5 y      -0.250034  0.134340 -0.215054 -0.043949 -0.093882 -0.022396
     5 z       0.176966 -0.118995  0.154831  0.027542  0.086697  0.020178
     6 x      -0.068295  0.036092  0.090329 -0.033743  0.048960  0.035091
     6 y       0.323556 -0.167360 -0.323261  0.085640 -0.159390 -0.124508
     6 z      -0.005483 -0.019009  0.011012 -0.010854 -0.009781 -0.002635
     7 x       0.058863 -0.024949  0.081558  0.033272  0.040112  0.029739
     7 y       0.325189 -0.168144  0.325469  0.086499  0.160535  0.125341
     7 z       0.013041 -0.027901  0.014029 -0.001091  0.022757  0.012080
     8 x      -0.142905 -0.307086  0.057437  0.138649 -0.274634  0.289021
     8 y       0.050286  0.152742  0.015816 -0.098792  0.123299 -0.172581
     8 z      -0.155217  0.117042  0.313797 -0.340474  0.026485 -0.357833
     9 x      -0.026393  0.037171 -0.359131  0.027571 -0.417998 -0.326189
     9 y      -0.067570  0.084146 -0.004612  0.063177 -0.005368 -0.004189
     9 z       0.187128 -0.262572 -0.052319 -0.194814 -0.060895 -0.047520
    10 x       0.051157  0.050788  0.020676 -0.022016 -0.012237  0.004738
    10 y       0.116134  0.105150  0.000266 -0.035018 -0.000157  0.000061
    10 z      -0.361394 -0.357890  0.003012  0.154209 -0.001783  0.000691
    11 x      -0.010190 -0.008822  0.025762  0.004854 -0.018766  0.000129
    11 y      -0.271219 -0.361835  0.000331  0.261215 -0.000240  0.000003
    11 z       0.093856  0.092452  0.003753 -0.056346 -0.002734  0.000019
    12 x       0.179933  0.256996  0.144944 -0.033231 -0.252476  0.170501
    12 y       0.054432  0.159987 -0.013216 -0.100998 -0.130069  0.178483
    12 z      -0.108186  0.199219 -0.284313 -0.365513 -0.103279  0.424779


  Frequency     744.7295  756.8346  782.7960  810.5730  818.5720  833.7742
  IR Intensity    0.0445    0.0368    0.0008    0.0000    0.0024    0.0001
     in X         0.0007    0.0360    0.0000    0.0000    0.0000    0.0000
     in Y         0.0148    0.0000    0.0000    0.0000    0.0014    0.0000
     in Z         0.0291    0.0008    0.0007    0.0000    0.0009    0.0001
  Raman Intsty    0.0036    0.0000    0.7921    0.0000    0.0335    1.1638

     1 x      -0.059705  0.040229  0.005584 -0.038043  0.023975 -0.086813
     1 y       0.417254  0.000517 -0.486408 -0.000489  0.159335 -0.222150
     1 z       0.373040  0.005861  0.004552 -0.005542 -0.178617  0.615490
     2 x      -0.171827 -0.463097 -0.348412 -0.076464  0.210885  0.291330
     2 y       0.109805  0.082630  0.249769 -0.483570  0.431447  0.015865
     2 z       0.139248  0.042819  0.073930  0.137092 -0.100296 -0.130817
     3 x       0.122148 -0.429410  0.306450 -0.046315 -0.184291 -0.242211
     3 y       0.113580 -0.094092  0.258178  0.481994  0.426372  0.009012
     3 z       0.182074 -0.172841  0.169332 -0.154979 -0.157866 -0.208544
     4 x       0.062011  0.186812  0.053595  0.216245 -0.230354 -0.114169
     4 y       0.061671  0.181328  0.042761  0.233618 -0.244699 -0.111835
     4 z      -0.034799 -0.089515 -0.028538 -0.112775  0.118929  0.056284
     5 x      -0.051038  0.158013 -0.044286  0.180893  0.192934  0.096144
     5 y       0.060220 -0.176900  0.041505 -0.228518 -0.239263 -0.109134
     5 z      -0.051268  0.139749 -0.042798  0.170631  0.180594  0.086923
     6 x       0.045388  0.059250  0.084852 -0.084745  0.063606 -0.018503
     6 y      -0.162515 -0.195999 -0.280985  0.336547 -0.269449  0.034330
     6 z      -0.006073 -0.000897 -0.000180 -0.001629  0.004593  0.002512
     7 x      -0.037668  0.051584 -0.074181 -0.073198 -0.055477  0.016148
     7 y      -0.163581  0.197422 -0.283026 -0.338576 -0.270978  0.034775
     7 z      -0.018173  0.017044 -0.023348 -0.021380 -0.012755  0.007560
     8 x       0.256255  0.020255 -0.058894  0.027709 -0.013742  0.027215
     8 y      -0.145224 -0.019431  0.026759 -0.011249  0.001431 -0.005388
     8 z      -0.246573 -0.089729 -0.046778 -0.029941  0.024134  0.054527
     9 x      -0.005297  0.541029 -0.012565 -0.093673  0.003548  0.006997
     9 y      -0.010561  0.006948 -0.036647 -0.001203  0.001686  0.021821
     9 z       0.037286  0.078818  0.089485 -0.013646 -0.024504 -0.049954
    10 x       0.039021  0.004122  0.017306  0.001607 -0.022739  0.063516
    10 y       0.068255  0.000053  0.043883  0.000021 -0.048518  0.132102
    10 z      -0.273868  0.000600 -0.122661  0.000234  0.160367 -0.447634
    11 x      -0.006794  0.001221  0.008424 -0.000922 -0.004281  0.009063
    11 y      -0.320957  0.000015  0.391681 -0.000011 -0.143977  0.244676
    11 z       0.074934  0.000178 -0.092353 -0.000134  0.042076 -0.083782
    12 x      -0.171532 -0.006678  0.069099  0.017725  0.006246 -0.041495
    12 y      -0.150717  0.019605  0.028403  0.011832  0.001688 -0.006270
    12 z      -0.308892  0.091707 -0.028133  0.036560  0.027046  0.044517




--------------------------------------------------------------------------------
  Vibrational properties (for cluster):  Temperature  =       0.000 K
--------------------------------------------------------------------------------
  Zero point energy            =        0.681320 eV
--------------------------------------------------------------------------------

  Phonon density of states : 

--------------------------------------------------------------------------------
 Frequency (cm-1) Density of States                                             
--------------------------------------------------------------------------------
    0.00000 |****************************************                      0.069
   13.02772 |                                                              0.000
   26.05545 |                                                              0.000
   39.08317 |                                                              0.000
   52.11089 |                                                              0.000
   65.13862 |********************                                          0.034
   78.16634 |                                                              0.000
   91.19406 |********************                                          0.034
  104.22179 |********************                                          0.034
  117.24951 |                                                              0.000
  130.27723 |                                                              0.000
  143.30496 |************************************************************  0.103
  156.33268 |****************************************                      0.069
  169.36040 |****************************************                      0.069
  182.38813 |                                                              0.000
  195.41585 |****************************************                      0.069
  208.44357 |                                                              0.000
  221.47129 |********************                                          0.034
  234.49902 |********************                                          0.034
  247.52674 |                                                              0.000
  260.55446 |                                                              0.000
  273.58219 |                                                              0.000
  286.60991 |********************                                          0.034
  299.63763 |                                                              0.000
  312.66536 |                                                              0.000
  325.69308 |                                                              0.000
  338.72080 |                                                              0.000
  351.74853 |                                                              0.000
  364.77625 |                                                              0.000
  377.80397 |                                                              0.000
  390.83170 |                                                              0.000
  403.85942 |                                                              0.000
  416.88714 |                                                              0.000
  429.91487 |                                                              0.000
  442.94259 |                                                              0.000
  455.97031 |                                                              0.000
  468.99804 |                                                              0.000
  482.02576 |********************                                          0.034
  495.05348 |                                                              0.000
  508.08121 |                                                              0.000
  521.10893 |                                                              0.000
  534.13665 |****************************************                      0.069
  547.16438 |                                                              0.000
  560.19210 |                                                              0.000
  573.21982 |                                                              0.000
  586.24755 |                                                              0.000
  599.27527 |                                                              0.000
  612.30299 |                                                              0.000
  625.33072 |                                                              0.000
  638.35844 |                                                              0.000
  651.38616 |                                                              0.000
  664.41388 |********************                                          0.034
  677.44161 |********************                                          0.034
  690.46933 |                                                              0.000
  703.49705 |                                                              0.000
  716.52478 |                                                              0.000
  729.55250 |********************                                          0.034
  742.58022 |********************                                          0.034
  755.60795 |********************                                          0.034
  768.63567 |                                                              0.000
  781.66339 |********************                                          0.034
  794.69112 |                                                              0.000
  807.71884 |****************************************                      0.069
  820.74656 |********************                                          0.034
--------------------------------------------------------------------------------



  Time to end of optimisation =       0.0326 seconds


  Peak dynamic memory used =       0.65 MB 


  Timing analysis for GULP :

--------------------------------------------------------------------------------
  Task / Subroutine                                          Time (Seconds)
--------------------------------------------------------------------------------
  Calculation of real space energy and derivatives                0.0021
  Calculation of phonons                                          0.0016
  Calculation and manipulation of Hessian matrix                  0.0013
--------------------------------------------------------------------------------
  Total CPU time                                                  0.0327
--------------------------------------------------------------------------------


  Job Finished at 14:38.57 25th May        2022                               

