********************************************************************************
*                       GENERAL UTILITY LATTICE PROGRAM                        *
*                                 Julian Gale                                  *
*                       Curtin Institute for Computation                       *
*                           Department of Chemistry                            *
*                    Curtin University, Western Australia                      *
********************************************************************************
* Version = 5.1.1 * Last modified =  24th November 2018                        *
********************************************************************************
*  optimise     - perform optimisation run                                     *
*  conp         - constant pressure calculation                                *
*  shell        - only shells and radii to be optimised                        *
*  phonon       - calculate phonons for final geometry                         *
*  eigenvectors - output phonon eigenvectors                                   *
********************************************************************************

  Job Started  at 14:40.21 25th May        2022                               

  Number of CPUs =     1

  Host name      = login03                                 


  Total number of configurations input =      1

********************************************************************************
*  Input for Configuration =   1                                               *
********************************************************************************

  Formula = Al3F9                                                       

  Number of irreducible atoms/shells =      21


  Total number atoms/shells =      21

  Dimensionality = 0               :  Cluster


  Charge on cluster =  -0.000000


  Initial cluster dipoles : x =     -0.000001 e.Angs
                            y =     -0.000000 e.Angs
                            z =     -0.000000 e.Angs

  Temperature of configuration =  0.000     K 

  Symmetry number =      1

  Cartesian coordinates of cluster :

--------------------------------------------------------------------------------
   No.  Atomic       x           y          z         Charge      Occupancy
        Label      (Angs)      (Angs)     (Angs)        (e)         (Frac)  
--------------------------------------------------------------------------------
      1 Al    c      0.2725     -2.3396     -1.8299     3.00000    1.000000    
      2 Al    c      2.0455     -0.5385     -0.8022     3.00000    1.000000    
      3 Al    c     -0.3430      0.3182     -1.8046     3.00000    1.000000    
      4 F     c      3.6376     -0.1772     -0.0255     0.59000    1.000000    
      5 F     c     -0.1703     -4.0455     -2.2327     0.59000    1.000000    
      6 F     c      2.1823     -1.9581     -2.1717     0.59000    1.000000    
      7 F     c      1.5386      0.8212     -2.1453     0.59000    1.000000    
      8 F     c     -1.4923      1.6628     -2.1784     0.59000    1.000000    
      9 F     c     -1.2690     -1.3027     -1.1530     0.59000    1.000000    
     10 F     c     -0.3153     -1.0622     -3.2199     0.59000    1.000000    
     11 F     c      0.5849      0.5806     -0.0784     0.59000    1.000000    
     12 F     c      1.2286     -2.1986     -0.1049     0.59000    1.000000    
     13 F     s      3.6376 *   -0.1772 *   -0.0255 *  -1.59000    1.000000    
     14 F     s     -0.1703 *   -4.0455 *   -2.2327 *  -1.59000    1.000000    
     15 F     s      2.1823 *   -1.9581 *   -2.1717 *  -1.59000    1.000000    
     16 F     s      1.5386 *    0.8212 *   -2.1453 *  -1.59000    1.000000    
     17 F     s     -1.4923 *    1.6628 *   -2.1784 *  -1.59000    1.000000    
     18 F     s     -1.2690 *   -1.3027 *   -1.1530 *  -1.59000    1.000000    
     19 F     s     -0.3153 *   -1.0622 *   -3.2199 *  -1.59000    1.000000    
     20 F     s      0.5849 *    0.5806 *   -0.0784 *  -1.59000    1.000000    
     21 F     s      1.2286 *   -2.1986 *   -0.1049 *  -1.59000    1.000000    
--------------------------------------------------------------------------------


  Brillouin zone sampling points :

--------------------------------------------------------------------------------
  Point number          x          y          z            Weight
--------------------------------------------------------------------------------
        1           0.000000   0.000000   0.000000     1.00000000
--------------------------------------------------------------------------------


********************************************************************************
*  General input information                                                   *
********************************************************************************

  Species output for all configurations : 

--------------------------------------------------------------------------------
  Species    Type    Atomic    Atomic    Charge       Radii (Angs)     Library
                     Number     Mass       (e)     Cova   Ionic  VDW   Symbol
--------------------------------------------------------------------------------
    Al       Core       13      26.98   3.000000   1.350  0.000  2.050          
    F        Core        9      19.00   0.590000   0.710  0.000  1.300          
    F        Shell       9       0.00  -1.590000   0.710  0.000  1.300          
--------------------------------------------------------------------------------


  Accuracy factor for short range sums = 12.000

  Time limit = Infinity

  Maximum range for interatomic potentials =    100000.000000 Angstroms

  General interatomic potentials :

--------------------------------------------------------------------------------
Atom  Types   Potential      Parameter       Value         Units   Cutoffs(Ang)
  1     2                                                            Min /  Max 
--------------------------------------------------------------------------------
Al   c F    s Buckingham    Buckingham A     3760.0008    eV        0.000 10.000
                            Buckingham rho  0.22200000    Ang       
                            Buckingham C     0.0000000    eV*Ang^6  
--------------------------------------------------------------------------------
F    s F    s Buck 4 range  Buck4 A          1127.7000    eV        0.000 12.000
                            Buck4 rho       0.27530000    Ang       
                            Buck4 C          15.830000    eV*Ang^6  
                            Buck4 minimum    2.7900000    Ang       
--------------------------------------------------------------------------------
F    c F    s Spring (c-s)  Spring k 2       20.770000    eV*Ang^-2 0.000  0.800
                            Spring k 4       0.0000000    eV*Ang^-4 
--------------------------------------------------------------------------------

********************************************************************************
*  Output for configuration   1                                                *
********************************************************************************


  Components of energy : 

--------------------------------------------------------------------------------
  Interatomic potentials     =           9.73190646 eV    
  Monopole - monopole (real) =        -174.39340712 eV    
--------------------------------------------------------------------------------
  Total lattice energy       =        -164.66150067 eV    
--------------------------------------------------------------------------------
  Total lattice energy       =          -15887.3177 kJ/mol
--------------------------------------------------------------------------------


  Number of variables =       27

  Maximum number of calculations  =          2000
  Maximum Hessian update interval =            10
  Maximum step size               =   1.000000000
  Maximum parameter tolerance     =   0.000001000
  Maximum function  tolerance     =   0.000010000
  Maximum gradient  tolerance     =   0.000000010
  Maximum gradient  component     =   0.010000000

  Symmetry not applied to optimisation

  Newton-Raphson optimiser to be used

  BFGS hessian update to be used

  Lower half triangular hessian to be used

  Minimiser to switch to RFO
  When gradient norm is less than     0.010000

  Shell only optimisation

  Start of cluster optimisation :

  Cycle:      0 Energy:      -164.661501  Gnorm:      1.571024  CPU:    0.004
  ** Hessian calculated **
  Cycle:      1 Energy:      -183.841024  Gnorm:      0.539629  CPU:    0.006
  ** Hessian calculated **
  Cycle:      2 Energy:      -184.994228  Gnorm:      0.028842  CPU:    0.008
  Cycle:      3 Energy:      -184.998866  Gnorm:      0.002349  CPU:    0.010
  ** Hessian has required structure
  Cycle:      4 Energy:      -184.998893  Gnorm:      0.000301  CPU:    0.012
  ** Hessian has required structure
  Cycle:      5 Energy:      -184.998894  Gnorm:      0.000014  CPU:    0.013
  ** Hessian has required structure
  Cycle:      6 Energy:      -184.998894  Gnorm:      0.000014  CPU:    0.015
  ** Hessian has required structure
  Cycle:      7 Energy:      -184.998894  Gnorm:      0.000014  CPU:    0.016
  ** Hessian has required structure
  Cycle:      8 Energy:      -184.998894  Gnorm:      0.000000  CPU:    0.018
  ** Hessian has required structure

  XYZ File written as 006/3/sp_mod_50/sp_mod_50_eig.xyz



  **** Optimisation achieved ****


  Final energy =    -184.99889353 eV
  Final Gnorm  =       0.00000000

  Components of energy : 

--------------------------------------------------------------------------------
  Interatomic potentials     =          36.66401049 eV    
  Monopole - monopole (real) =        -221.66290402 eV    
--------------------------------------------------------------------------------
  Total lattice energy       =        -184.99889353 eV    
--------------------------------------------------------------------------------
  Total lattice energy       =          -17849.5653 kJ/mol
--------------------------------------------------------------------------------

  Final cartesian coordinates of atoms :

--------------------------------------------------------------------------------
   No.  Atomic        x           y          z          Radius
        Label       (Angs)      (Angs)     (Angs)       (Angs) 
--------------------------------------------------------------------------------
     1  Al    c     0.272527   -2.339603   -1.829871    0.000000
     2  Al    c     2.045492   -0.538498   -0.802186    0.000000
     3  Al    c    -0.342971    0.318223   -1.804579    0.000000
     4  F     c     3.637606   -0.177189   -0.025501    0.000000
     5  F     c    -0.170305   -4.045538   -2.232729    0.000000
     6  F     c     2.182262   -1.958055   -2.171746    0.000000
     7  F     c     1.538650    0.821171   -2.145298    0.000000
     8  F     c    -1.492251    1.662849   -2.178406    0.000000
     9  F     c    -1.269007   -1.302730   -1.153036    0.000000
    10  F     c    -0.315297   -1.062201   -3.219925    0.000000
    11  F     c     0.584939    0.580642   -0.078409    0.000000
    12  F     c     1.228551   -2.198584   -0.104857    0.000000
    13  F     s     3.386820   -0.234101   -0.147842    0.000000
    14  F     s    -0.100551   -3.776823   -2.169271    0.000000
    15  F     s     1.965456   -1.807577   -2.061437    0.000000
    16  F     s     1.410516    0.588748   -2.038633    0.000000
    17  F     s    -1.311219    1.451047   -2.119522    0.000000
    18  F     s    -0.996618   -1.239081   -1.212779    0.000000
    19  F     s    -0.188008   -1.035148   -2.965205    0.000000
    20  F     s     0.601906    0.384814   -0.286207    0.000000
    21  F     s     1.156846   -2.011511   -0.309011    0.000000
--------------------------------------------------------------------------------


  Final Cartesian derivatives :

--------------------------------------------------------------------------------
   No.  Atomic          x             y             z           Radius
        Label       (eV/Angs)     (eV/Angs)    (eV/Angs)      (eV/Angs)
--------------------------------------------------------------------------------
      1 Al    c       0.000000      0.000000      0.000000      0.000000
      2 Al    c       0.000000      0.000000      0.000000      0.000000
      3 Al    c       0.000000      0.000000      0.000000      0.000000
      4 F     c       0.000000      0.000000      0.000000      0.000000
      5 F     c       0.000000      0.000000      0.000000      0.000000
      6 F     c       0.000000      0.000000      0.000000      0.000000
      7 F     c       0.000000      0.000000      0.000000      0.000000
      8 F     c       0.000000      0.000000      0.000000      0.000000
      9 F     c       0.000000      0.000000      0.000000      0.000000
     10 F     c       0.000000      0.000000      0.000000      0.000000
     11 F     c       0.000000      0.000000      0.000000      0.000000
     12 F     c       0.000000      0.000000      0.000000      0.000000
     13 F     s       0.000000      0.000000     -0.000000      0.000000
     14 F     s      -0.000000      0.000000      0.000000      0.000000
     15 F     s       0.000000     -0.000000      0.000000      0.000000
     16 F     s       0.000000     -0.000000      0.000000      0.000000
     17 F     s      -0.000000     -0.000000      0.000000      0.000000
     18 F     s       0.000000     -0.000000     -0.000000      0.000000
     19 F     s       0.000000      0.000000      0.000000      0.000000
     20 F     s      -0.000000     -0.000000      0.000000      0.000000
     21 F     s      -0.000000     -0.000000      0.000000      0.000000
--------------------------------------------------------------------------------
  Maximum abs         0.000000      0.000000      0.000000      0.000000
--------------------------------------------------------------------------------


  Born effective charge tensors : 

-------------------------------------------------------------------------------
  Atom             x           y             z
-------------------------------------------------------------------------------
    1 Al    x       1.4032     -0.1764      0.0584
            y      -0.1764      0.8523     -0.1256
            z       0.0584     -0.1256      1.2445
-------------------------------------------------------------------------------
    2 Al    x       0.8922     -0.1370     -0.1728
            y      -0.1370      1.4596     -0.0368
            z      -0.1728     -0.0368      1.1481
-------------------------------------------------------------------------------
    3 Al    x       1.1575      0.3263      0.0035
            y       0.3263      1.0931      0.1344
            z       0.0035      0.1344      1.2494
-------------------------------------------------------------------------------
    4 F     x      -0.0576      0.1133      0.2302
            y       0.1133     -0.5305      0.0520
            z       0.2302      0.0520     -0.4156
-------------------------------------------------------------------------------
    5 F     x      -0.5131      0.1484      0.0241
            y       0.1484      0.0109      0.1312
            z       0.0241      0.1312     -0.5015
-------------------------------------------------------------------------------
    6 F     x      -0.4489     -0.0065     -0.0434
            y      -0.0284     -0.4381     -0.0254
            z      -0.0050     -0.0633     -0.3611
-------------------------------------------------------------------------------
    7 F     x      -0.4609     -0.0034     -0.0498
            y       0.0180     -0.4274      0.0025
            z      -0.0315      0.0535     -0.3598
-------------------------------------------------------------------------------
    8 F     x      -0.2940     -0.2997      0.0730
            y      -0.2997     -0.2038     -0.1006
            z       0.0730     -0.1006     -0.5059
-------------------------------------------------------------------------------
    9 F     x      -0.4311      0.0118     -0.0323
            y       0.0112     -0.4779     -0.0088
            z       0.0244      0.0043     -0.3390
-------------------------------------------------------------------------------
   10 F     x      -0.3843      0.0225     -0.0150
            y       0.0230     -0.4753     -0.0043
            z      -0.0717     -0.0175     -0.3886
-------------------------------------------------------------------------------
   11 F     x      -0.4479      0.0448     -0.0397
            y       0.0234     -0.4148      0.0006
            z      -0.0580     -0.0504     -0.3855
-------------------------------------------------------------------------------
   12 F     x      -0.4150     -0.0440     -0.0361
            y      -0.0220     -0.4481     -0.0190
            z      -0.0746      0.0188     -0.3850
-------------------------------------------------------------------------------




  Moment of inertia tensor (10^-46 x kgm^2): 

-------------------------------------------------------------------------------
                x           y           z           Principal axis system
-------------------------------------------------------------------------------
       x        133.77        3.14      -26.98          121.316374
       y          3.14      122.11       -6.81          121.316375
       z        -26.98       -6.81      179.80          193.040201
-------------------------------------------------------------------------------
  Centre of mass (Ang) =     0.658350    -0.853293    -1.478879
-------------------------------------------------------------------------------


  Vibrational Frequency Calculation : 

--------------------------------------------------------------------------------

  Frequencies (cm-1) and Eigenvectors : 

  Frequency      -0.0000    0.0000    0.0000   17.9617   17.9622   52.5859
  IR Intensity    0.0000    0.0000    0.0000    0.0000    0.0000    0.0000
     in X         0.0000    0.0000    0.0000    0.0000    0.0000    0.0000
     in Y         0.0000    0.0000    0.0000    0.0000    0.0000    0.0000
     in Z         0.0000    0.0000    0.0000    0.0000    0.0000    0.0000
  Raman Intsty    0.0000    0.0000    0.0000    0.0000    0.0000    0.0000

     1 x       0.275846 -0.167679 -0.053683  0.046795  0.000862  0.185305
     1 y      -0.167394 -0.280699  0.016619  0.011802  0.000217 -0.066468
     1 z      -0.054563  0.013451 -0.322383 -0.101414 -0.001868  0.077769
     2 x       0.275846 -0.167679 -0.053683 -0.024144  0.040096 -0.047753
     2 y      -0.167394 -0.280699  0.016619 -0.006089  0.010112  0.206204
     2 z      -0.054563  0.013451 -0.322383  0.052324 -0.086895  0.001962
     3 x       0.275846 -0.167679 -0.053683 -0.022652 -0.040957 -0.137553
     3 y      -0.167394 -0.280699  0.016619 -0.005713 -0.010330 -0.139736
     3 z      -0.054563  0.013451 -0.322383  0.049091  0.088763 -0.079732
     4 x       0.231485 -0.140713 -0.045050 -0.121565  0.201880 -0.106628
     4 y      -0.140474 -0.235557  0.013947 -0.030659  0.050915  0.460436
     4 z      -0.045788  0.011288 -0.270538  0.263458 -0.437515  0.004382
     5 x       0.231485 -0.140713 -0.045050  0.235616  0.004339  0.413774
     5 y      -0.140474 -0.235557  0.013947  0.059423  0.001094 -0.148417
     5 z      -0.045788  0.011288 -0.270538 -0.510629 -0.009404  0.173653
     6 x       0.231485 -0.140713 -0.045050  0.053175 -0.156644  0.117277
     6 y      -0.140474 -0.235557  0.013947  0.228387  0.156153  0.119139
     6 z      -0.045788  0.011288 -0.270538 -0.054636 -0.245319  0.067979
     7 x       0.231485 -0.140713 -0.045050 -0.004595 -0.164928 -0.157991
     7 y      -0.140474 -0.235557  0.013947  0.265429  0.064016  0.056670
     7 z      -0.045788  0.011288 -0.270538  0.247238 -0.064628 -0.066306
     8 x       0.231485 -0.140713 -0.045050 -0.114050 -0.206219 -0.307145
     8 y      -0.140474 -0.235557  0.013947 -0.028764 -0.052009 -0.312020
     8 z      -0.045788  0.011288 -0.270538  0.247170  0.446919 -0.178034
     9 x       0.231485 -0.140713 -0.045050 -0.059524  0.181181  0.040714
     9 y      -0.140474 -0.235557  0.013947 -0.177810 -0.060246 -0.175809
     9 z      -0.045788  0.011288 -0.270538 -0.160877  0.263779 -0.001673
    10 x       0.231485 -0.140713 -0.045050  0.144339 -0.322031  0.040713
    10 y      -0.140474 -0.235557  0.013947  0.199200  0.024723 -0.175809
    10 z      -0.045788  0.011288 -0.270538 -0.022936  0.041473 -0.001673
    11 x       0.231485 -0.140713 -0.045050 -0.159793  0.161900 -0.157991
    11 y      -0.140474 -0.235557  0.013947 -0.306888 -0.064779  0.056670
    11 z      -0.045788  0.011288 -0.270538  0.109024  0.071189 -0.066306
    12 x       0.231485 -0.140713 -0.045050  0.026397  0.300521  0.117277
    12 y      -0.140474 -0.235557  0.013947 -0.208319 -0.119867  0.119139
    12 z      -0.045788  0.011288 -0.270538 -0.117812 -0.066494  0.067979


  Frequency      85.5937   85.5938  129.1374  129.1376  131.0944  135.9000
  IR Intensity    0.0000    0.0000    0.0175    0.0175    0.0377    0.0000
     in X         0.0000    0.0000    0.0140    0.0004    0.0065    0.0000
     in Y         0.0000    0.0000    0.0009    0.0165    0.0004    0.0000
     in Z         0.0000    0.0000    0.0026    0.0006    0.0307    0.0000
  Raman Intsty    0.0000    0.0000    0.0000    0.0000    0.0000    0.0000

     1 x      -0.216970  0.077633 -0.067334  0.017997 -0.054611 -0.130899
     1 y      -0.054721  0.019579  0.014276  0.095771 -0.013773 -0.033013
     1 z       0.470219 -0.168246 -0.029408  0.019450  0.118354  0.283686
     2 x       0.175716  0.149085 -0.086774  0.021025 -0.054606  0.053594
     2 y       0.044316  0.037600  0.011997  0.074367 -0.013772  0.013517
     2 z      -0.380814 -0.323098 -0.038644  0.018356  0.118342 -0.116150
     3 x       0.041253 -0.226717 -0.079675  0.002674 -0.054607  0.077309
     3 y       0.010404 -0.057179  0.031673  0.083096 -0.013772  0.019498
     3 z      -0.089404  0.491343 -0.033078  0.010904  0.118345 -0.167545
     4 x       0.065518  0.055588  0.000700  0.188990  0.210134 -0.090730
     4 y       0.016524  0.014020 -0.324350 -0.669778  0.052997 -0.022882
     4 z      -0.141991 -0.120471 -0.037422  0.009261 -0.455403  0.196631
     5 x      -0.080900  0.028946  0.663397  0.085796  0.210143  0.221589
     5 y      -0.020403  0.007300 -0.246704  0.059789  0.052999  0.055886
     5 z       0.175325 -0.062731  0.277397  0.046546 -0.455424 -0.480230
     6 x      -0.079524  0.275041 -0.100499 -0.003956 -0.057098 -0.060943
     6 y       0.020343 -0.276377  0.059884  0.111596 -0.036351 -0.145414
     6 z      -0.015023 -0.011337 -0.062502 -0.005325  0.162216  0.161967
     7 x       0.113650 -0.082161 -0.076457  0.018575 -0.066587  0.097591
     7 y       0.355737 -0.112399  0.013265  0.139908  0.004613 -0.134156
     7 z      -0.007685 -0.014666 -0.036464  0.053100  0.162592 -0.321113
     8 x       0.015382 -0.084534  0.242680 -0.436519  0.210136 -0.130875
     8 y       0.003879 -0.021320  0.346296 -0.372238  0.052997 -0.033007
     8 z      -0.033336  0.183203  0.152277 -0.244738 -0.455408  0.283634
     9 x      -0.295476 -0.237490 -0.117707  0.032554 -0.051152 -0.010165
     9 y      -0.038229 -0.089452  0.009606  0.086495 -0.013435  0.082655
     9 z      -0.058567 -0.050234 -0.079022  0.036847  0.167630  0.148435
    10 x       0.233608  0.185000 -0.137140  0.041402 -0.093918 -0.097817
    10 y       0.022626  0.076214  0.004705  0.088728 -0.023152 -0.109889
    10 z       0.192646  0.163991 -0.036905  0.017669  0.146766  0.085584
    11 x      -0.037258  0.054828 -0.078511  0.039829 -0.078471  0.166167
    11 y      -0.336471  0.105506  0.012747  0.145269 -0.041198  0.200676
    11 z      -0.157872  0.073902 -0.032015  0.007036  0.151778 -0.250505
    12 x       0.064999 -0.195218 -0.117879 -0.016360 -0.087969 -0.094822
    12 y      -0.024007  0.296509  0.055500  0.108468 -0.000235  0.106130
    12 z       0.046502 -0.161657 -0.024835  0.021561  0.152174  0.175607


  Frequency     135.9002  138.6905  177.3444  258.7816  258.7817  283.1929
  IR Intensity    0.0000    0.0000    0.0000    0.0215    0.0215    0.0179
     in X         0.0000    0.0000    0.0000    0.0151    0.0026    0.0031
     in Y         0.0000    0.0000    0.0000    0.0039    0.0174    0.0002
     in Z         0.0000    0.0000    0.0000    0.0025    0.0015    0.0146
  Raman Intsty    0.0000    0.0000    0.0000    0.0000    0.0000    0.0000

     1 x       0.013691  0.000003 -0.285195 -0.056233 -0.071258 -0.066789
     1 y       0.003453  0.000001  0.102297 -0.018729 -0.298280 -0.016844
     1 z      -0.029672 -0.000006 -0.119691 -0.028127 -0.067591  0.144746
     2 x      -0.120210 -0.000003  0.073494  0.215525 -0.176767 -0.066789
     2 y      -0.030317 -0.000001 -0.317358  0.082159  0.004248 -0.016844
     2 z       0.260520  0.000006 -0.003020  0.109009 -0.081070  0.144746
     3 x       0.106518  0.000002  0.211701  0.171020  0.111337 -0.066789
     3 y       0.026864  0.000001  0.215061 -0.230282 -0.059644 -0.016844
     3 z      -0.230845 -0.000003  0.122711  0.052114  0.044432  0.144746
     4 x       0.203498  0.000003 -0.074690  0.227792 -0.190577  0.018972
     4 y       0.051323 -0.000000  0.322523  0.095012  0.014550  0.004785
     4 z      -0.441022 -0.000006  0.003069  0.116165 -0.086244 -0.041117
     5 x      -0.023176 -0.000005  0.289833 -0.071067 -0.074546  0.018972
     5 y      -0.005845 -0.000001 -0.103961 -0.015937 -0.318147  0.004785
     5 z       0.050228  0.000011  0.121638 -0.034646 -0.071421 -0.041117
     6 x       0.017993  0.265300 -0.157578 -0.169203 -0.173547 -0.213825
     6 y      -0.096774  0.269511 -0.160080  0.344828  0.044635  0.293272
     6 z       0.282275  0.153779 -0.091339 -0.162983 -0.128347 -0.145093
     7 x       0.070929 -0.357399  0.212283  0.130993  0.039446 -0.063760
     7 y      -0.015071  0.128197 -0.076144  0.002496  0.397788 -0.354735
     7 z       0.067640 -0.149990  0.089091  0.076952  0.199510 -0.151260
     8 x      -0.180316 -0.000004 -0.215146  0.178849  0.126257  0.018972
     8 y      -0.045476 -0.000001 -0.218561 -0.248586 -0.055714  0.004785
     8 z       0.390782  0.000006 -0.124708  0.053596  0.051775 -0.041117
     9 x      -0.028264 -0.092099 -0.054704 -0.244502  0.223609 -0.307893
     9 y       0.035124  0.397706  0.236223 -0.142503 -0.067518 -0.069106
     9 z      -0.330849  0.003777  0.002248 -0.238221  0.176875 -0.230670
    10 x       0.270474  0.092106 -0.054704 -0.326383  0.284975  0.368509
    10 y       0.025963 -0.397704  0.236224 -0.163154 -0.052042  0.084394
    10 z      -0.194070 -0.003791  0.002248 -0.060769  0.043884  0.099301
    11 x      -0.098518  0.357396  0.212283  0.143196  0.141040  0.124376
    11 y       0.008113 -0.128197 -0.076144  0.005574  0.423411  0.370023
    11 z      -0.007849  0.149996  0.089091  0.050504 -0.020664  0.019892
    12 x      -0.232618 -0.265300 -0.157578 -0.263287 -0.213775  0.274441
    12 y       0.042645 -0.269511 -0.160080  0.321099  0.034489 -0.277985
    12 z       0.182862 -0.153779 -0.091339  0.040917 -0.041164  0.013725


  Frequency     308.1836  308.6899  308.6900  359.5301  359.5302  405.4851
  IR Intensity    0.0000    0.0000    0.0000    0.0032    0.0032    0.0000
     in X         0.0000    0.0000    0.0000    0.0023    0.0003    0.0000
     in Y         0.0000    0.0000    0.0000    0.0005    0.0027    0.0000
     in Z         0.0000    0.0000    0.0000    0.0004    0.0002    0.0000
  Raman Intsty    0.3310    0.0000    0.0000    0.0000    0.0000    1.9503

     1 x       0.009465 -0.010301 -0.002954 -0.280208 -0.028848 -0.064952
     1 y       0.036462 -0.002599 -0.000744  0.084812 -0.198596 -0.250217
     1 z       0.008611  0.022324  0.006403 -0.119425 -0.036422 -0.059089
     2 x      -0.034029  0.007710 -0.007445  0.107532 -0.159828  0.233522
     2 y      -0.007722  0.001944 -0.001877  0.207386  0.232010  0.052995
     2 z      -0.016601 -0.016707  0.016132  0.073752 -0.046749  0.113920
     3 x       0.024564  0.002591  0.010399  0.027094  0.241455 -0.168570
     3 y      -0.028739  0.000655  0.002622 -0.226817  0.122860  0.197222
     3 z       0.007990 -0.005617 -0.022535 -0.013893  0.125710 -0.054831
     4 x      -0.040705 -0.040414  0.039020  0.214095 -0.134374  0.409092
     4 y      -0.009237 -0.010193  0.009841  0.023934 -0.066637  0.092838
     4 z      -0.019852  0.087588 -0.084569  0.101574 -0.069758  0.199569
     5 x       0.011322  0.054001  0.015490  0.031985 -0.072856 -0.113785
     5 y       0.043613  0.013618  0.003907 -0.033635 -0.268881 -0.438338
     5 z       0.010297 -0.117032 -0.033569  0.010844 -0.064908 -0.103514
     6 x      -0.127979 -0.296802  0.169159 -0.187244  0.002766 -0.115084
     6 y       0.278123 -0.313214  0.124946 -0.100788  0.045856  0.072540
     6 z      -0.266681 -0.242796 -0.185862  0.351363  0.222975  0.071410
     7 x       0.006179 -0.220168  0.397803 -0.098968  0.187853 -0.071186
     7 y      -0.301200  0.039917 -0.153901  0.041637  0.014323 -0.117018
     7 z      -0.272195  0.178904  0.244761 -0.078191 -0.409105  0.069606
     8 x       0.029383 -0.013587 -0.054511  0.176316  0.054098 -0.295307
     8 y      -0.034375 -0.003426 -0.013749 -0.179998 -0.117902  0.345500
     8 z       0.009555  0.029444  0.118137  0.060409  0.011241 -0.096055
     9 x       0.212071 -0.017196 -0.142115 -0.148346  0.066007  0.142601
     9 y       0.045844  0.358535  0.339200  0.036837  0.126762  0.033465
     9 z       0.343179 -0.172661  0.173232  0.347957 -0.235881 -0.046377
    10 x       0.392660  0.172521 -0.007853  0.161755 -0.145500  0.055263
    10 y       0.091392 -0.319361 -0.377022  0.115045  0.073420  0.011438
    10 z      -0.048192 -0.163998  0.151823 -0.324095  0.222497  0.142902
    11 x      -0.174381  0.012613 -0.457342 -0.127087 -0.186455  0.016152
    11 y      -0.346755 -0.092249  0.138869  0.034545 -0.080079 -0.094992
    11 z       0.119187  0.270924 -0.115739 -0.017250  0.402098 -0.119673
    12 x      -0.308549  0.349032  0.040350  0.150976  0.165568 -0.027746
    12 y       0.232597  0.326373 -0.072091 -0.015488  0.086915  0.094567
    12 z       0.124701  0.129627 -0.268215 -0.381630 -0.129851 -0.117869


  Frequency     430.6465  430.6465  436.8570  436.8570  454.6435  475.7258
  IR Intensity    0.0000    0.0000    0.0434    0.0434    0.0000    0.0000
     in X         0.0000    0.0000    0.0357    0.0002    0.0000    0.0000
     in Y         0.0000    0.0000    0.0006    0.0424    0.0000    0.0000
     in Z         0.0000    0.0000    0.0071    0.0009    0.0000    0.0000
  Raman Intsty    0.0000    0.0000    0.0000    0.0000    0.0000    8.1418

     1 x      -0.039976 -0.203482 -0.105038  0.019029  0.373890 -0.016647
     1 y      -0.010082 -0.051317  0.004175  0.156936 -0.134112 -0.064125
     1 z       0.086633  0.440984 -0.047982  0.027042  0.156916 -0.015144
     2 x      -0.156231  0.136359 -0.143463  0.020910 -0.096350  0.059847
     2 y      -0.039405  0.034390  0.004151  0.114851  0.416057  0.013580
     2 z       0.338587 -0.295519 -0.065711  0.023018  0.003959  0.029195
     3 x       0.196208  0.067121 -0.125881 -0.013306 -0.277540 -0.043200
     3 y       0.049484  0.016930  0.040610  0.135873 -0.281945  0.050545
     3 z      -0.425220 -0.145465 -0.053360  0.009670 -0.160877 -0.014051
     4 x       0.003281 -0.002864 -0.280378  0.093679 -0.004125  0.177344
     4 y       0.000827 -0.000722 -0.063903  0.020434  0.017812  0.040246
     4 z      -0.007110  0.006206 -0.136810  0.045604  0.000169  0.086514
     5 x       0.000839  0.004273 -0.015751  0.080703  0.016007 -0.049327
     5 y       0.000210  0.001079 -0.063745  0.310267 -0.005743 -0.190023
     5 z      -0.001820 -0.009260 -0.014686  0.073345  0.006718 -0.044874
     6 x       0.246768  0.205806  0.064657 -0.321963 -0.178319  0.257703
     6 y      -0.178604  0.062217  0.231324 -0.180209 -0.181152 -0.106796
     6 z      -0.264572 -0.020145  0.252213  0.003770 -0.103364 -0.257418
     7 x      -0.190971 -0.169411  0.349700  0.198182  0.240226  0.183451
     7 y       0.002369 -0.275851 -0.159236  0.094146 -0.086168  0.213829
     7 z      -0.014975  0.260637  0.195184 -0.153525  0.100819 -0.254367
     8 x      -0.004118 -0.001411 -0.159302 -0.141982 -0.011882 -0.128017
     8 y      -0.001041 -0.000354  0.187179  0.165213 -0.012070  0.149777
     8 z       0.008930  0.003054 -0.051723 -0.046288 -0.006887 -0.041640
     9 x      -0.245705  0.267376 -0.150048  0.153878 -0.061907 -0.304245
     9 y      -0.177632 -0.073497 -0.178040 -0.389108  0.267318 -0.072505
     9 z       0.150737 -0.133738  0.157863 -0.056897  0.002545  0.215076
    10 x       0.031419 -0.080347  0.036423  0.091712 -0.061906 -0.030429
    10 y       0.123594  0.120661 -0.131010 -0.404786  0.267320 -0.003447
    10 z       0.313664 -0.271591 -0.246254  0.077837  0.002542 -0.378341
    11 x       0.136136 -0.109679  0.389096  0.005613  0.240228 -0.090366
    11 y      -0.016196  0.205463 -0.149302  0.045577 -0.086167  0.144772
    11 z       0.133796  0.344211  0.109807  0.263819  0.100822  0.339050
    12 x       0.022350 -0.113744  0.211731 -0.191560 -0.178321 -0.016114
    12 y       0.246477 -0.038997  0.268419 -0.147318 -0.181151 -0.175853
    12 z      -0.318652 -0.179373 -0.066527 -0.278840 -0.103362  0.336000


  Frequency     550.8531  631.7539  631.7539  793.4131  793.4133  889.9858
  IR Intensity    0.1976    0.1539    0.1539    0.0062    0.0062    0.0000
     in X         0.0343    0.1085    0.0187    0.0047    0.0005    0.0000
     in Y         0.0022    0.0278    0.1244    0.0007    0.0054    0.0000
     in Z         0.1611    0.0176    0.0108    0.0008    0.0003    0.0000
  Raman Intsty    0.0000    0.0000    0.0000    0.0000    0.0000    2.5169

     1 x      -0.178418  0.561733 -0.079944 -0.122548  0.147108 -0.124149
     1 y      -0.044998 -0.207509 -0.021091  0.023665  0.582543 -0.478262
     1 z       0.386669  0.235049 -0.039343 -0.053793  0.135671 -0.112942
     2 x      -0.178418  0.121994  0.091208  0.445076  0.312002  0.446351
     2 y      -0.044997 -0.371222 -0.510643  0.173764 -0.046411  0.101293
     2 z       0.386669  0.013091 -0.017340  0.225590  0.138564  0.217745
     3 x      -0.178419  0.193642 -0.375194  0.304065 -0.262022 -0.322202
     3 y      -0.044998  0.134598 -0.407647 -0.445976  0.138077  0.376968
     3 z       0.386669  0.105014 -0.220562  0.088404 -0.104835 -0.104803
     4 x       0.016022 -0.106110  0.069757 -0.377054 -0.234753 -0.240910
     4 y       0.004041 -0.002461  0.044627 -0.086996 -0.050973 -0.054671
     4 z      -0.034722 -0.049248  0.037381 -0.184105 -0.114252 -0.117524
     5 x       0.016021 -0.026288  0.038688  0.006255 -0.123402  0.067007
     5 y       0.004041  0.027257  0.133492  0.014365 -0.475697  0.258134
     5 z      -0.034722 -0.008958  0.033386  0.004558 -0.112299  0.060958
     6 x       0.184959 -0.236688 -0.004415  0.013254 -0.054967  0.015901
     6 y      -0.076606  0.070738  0.128261 -0.034814 -0.029985 -0.002428
     6 z      -0.184834  0.142003  0.116543 -0.043236 -0.004592 -0.023177
     7 x       0.131688 -0.101283  0.158959 -0.057662  0.024556  0.013118
     7 y       0.153432  0.067015  0.196640  0.019358  0.032675  0.009588
     7 z      -0.182645 -0.070661 -0.166027 -0.022713 -0.036228 -0.023063
     8 x       0.016022 -0.093105 -0.014906 -0.281831  0.152877  0.173903
     8 y       0.004040  0.089357  0.063323  0.331506 -0.175555 -0.203462
     8 z      -0.034722 -0.032562  0.000491 -0.091466  0.050111  0.056566
     9 x       0.218353 -0.230991  0.134865  0.030239  0.036013 -0.017645
     9 y       0.052036  0.029703  0.144177  0.042394 -0.048141 -0.004292
     9 z      -0.154455  0.108131 -0.079596 -0.024774 -0.016086  0.021590
    10 x      -0.021764 -0.072029  0.015523 -0.002613  0.015621  0.005103
    10 y      -0.002455  0.069794  0.114079  0.034108 -0.053284  0.001445
    10 z      -0.271592 -0.236373  0.179042  0.046424  0.028108 -0.027709
    11 x       0.064901 -0.125155 -0.038377 -0.056427 -0.014091 -0.009630
    11 y      -0.103852  0.060994  0.146871  0.019669  0.022928  0.003851
    11 z      -0.243402 -0.018926  0.261642 -0.025388  0.047528  0.026237
    12 x       0.011629 -0.053854  0.073579 -0.020833 -0.036713 -0.006847
    12 y       0.126186  0.116849  0.147931 -0.043411 -0.025381 -0.008165
    12 z      -0.241213 -0.254236 -0.052487  0.030636 -0.044154  0.026122




--------------------------------------------------------------------------------
  Vibrational properties (for cluster):  Temperature  =       0.000 K
--------------------------------------------------------------------------------
  Zero point energy            =        0.679178 eV
--------------------------------------------------------------------------------

  Phonon density of states : 

--------------------------------------------------------------------------------
 Frequency (cm-1) Density of States                                             
--------------------------------------------------------------------------------
    0.00000 |********************                                          0.057
   13.90603 |********************                                          0.057
   27.81206 |                                                              0.000
   41.71809 |**********                                                    0.029
   55.62411 |                                                              0.000
   69.53014 |                                                              0.000
   83.43617 |********************                                          0.057
   97.34220 |                                                              0.000
  111.24823 |                                                              0.000
  125.15426 |************************************************************  0.171
  139.06029 |                                                              0.000
  152.96631 |                                                              0.000
  166.87234 |**********                                                    0.029
  180.77837 |                                                              0.000
  194.68440 |                                                              0.000
  208.59043 |                                                              0.000
  222.49646 |                                                              0.000
  236.40249 |                                                              0.000
  250.30851 |********************                                          0.057
  264.21454 |                                                              0.000
  278.12057 |**********                                                    0.029
  292.02660 |                                                              0.000
  305.93263 |******************************                                0.086
  319.83866 |                                                              0.000
  333.74469 |                                                              0.000
  347.65071 |********************                                          0.057
  361.55674 |                                                              0.000
  375.46277 |                                                              0.000
  389.36880 |                                                              0.000
  403.27483 |**********                                                    0.029
  417.18086 |********************                                          0.057
  431.08688 |********************                                          0.057
  444.99291 |**********                                                    0.029
  458.89894 |                                                              0.000
  472.80497 |**********                                                    0.029
  486.71100 |                                                              0.000
  500.61703 |                                                              0.000
  514.52306 |                                                              0.000
  528.42908 |                                                              0.000
  542.33511 |**********                                                    0.029
  556.24114 |                                                              0.000
  570.14717 |                                                              0.000
  584.05320 |                                                              0.000
  597.95923 |                                                              0.000
  611.86526 |                                                              0.000
  625.77128 |********************                                          0.057
  639.67731 |                                                              0.000
  653.58334 |                                                              0.000
  667.48937 |                                                              0.000
  681.39540 |                                                              0.000
  695.30143 |                                                              0.000
  709.20746 |                                                              0.000
  723.11348 |                                                              0.000
  737.01951 |                                                              0.000
  750.92554 |                                                              0.000
  764.83157 |                                                              0.000
  778.73760 |                                                              0.000
  792.64363 |********************                                          0.057
  806.54966 |                                                              0.000
  820.45568 |                                                              0.000
  834.36171 |                                                              0.000
  848.26774 |                                                              0.000
  862.17377 |                                                              0.000
  876.07980 |**********                                                    0.029
--------------------------------------------------------------------------------



  Time to end of optimisation =       0.0273 seconds


  Peak dynamic memory used =       0.65 MB 


  Timing analysis for GULP :

--------------------------------------------------------------------------------
  Task / Subroutine                                          Time (Seconds)
--------------------------------------------------------------------------------
  Calculation of real space energy and derivatives                0.0015
  Calculation of phonons                                          0.0016
  Calculation and manipulation of Hessian matrix                  0.0009
--------------------------------------------------------------------------------
  Total CPU time                                                  0.0274
--------------------------------------------------------------------------------


  Job Finished at 14:40.21 25th May        2022                               

