------------------------------------------------------------
          Invoking FHI-aims ...

          When using FHI-aims, please cite the following reference:

            Volker Blum, Ralf Gehrke, Felix Hanke, Paula Havu,
            Ville Havu, Xinguo Ren, Karsten Reuter, and Matthias Scheffler,
            'Ab Initio Molecular Simulations with Numeric Atom-Centered Orbitals',
            Computer Physics Communications 180, 2175-2196 (2009)

          In addition, many other developments in FHI-aims are likely important for
          your particular application. A partial list of references is given at the end of
          this file. Thank you for giving credit to the authors of these developments.

          For any questions about FHI-aims, please visit our slack channel at

            https://fhi-aims.slack.com

          and our main development and support site at

            https://aims-git.rz-berlin.mpg.de .

          The latter site, in particular, has a wiki to collect information, as well
          as an issue tracker to log discussions, suggest improvements, and report issues
          or bugs. https://aims-git.rz-berlin.mpg.de is also the main development site
          of the project and all new and updated code versions can be obtained there.
          Please send an email to aims-coordinators@fhi-berlin.mpg.de and we will add
          you to these sites. They are for you and everyone is welcome there.

------------------------------------------------------------



  Date     :  20220517, Time     :  120058.230
  Time zero on CPU 1             :   0.423460000000000E-01  s.
  Internal wall clock time zero  :           422020858.230  s.

  FHI-aims created a unique identifier for this run for later identification
  aims_uuid : 8C7EE03E-C396-4448-AC31-E21E1D443A3B

  Build configuration of the current instance of FHI-aims
  -------------------------------------------------------
  FHI-aims version      : 210914
  Commit number         : GITDIR-NOTFOUND
  CMake host system     : Linux-3.10.0-693.17.1.el7.x86_64
  CMake version         : 3.21.1
  Fortran compiler      : /shared/ucl/apps/intel/2018.Update3/impi/2018.3.222/intel64/bin/mpiifort (Intel) version 18.0.3.20180410
  Fortran compiler flags: -O3 -ip -fp-model precise
  C compiler            : /shared/ucl/apps/intel/2018.Update3/compilers_and_libraries_2018.3.222/linux/bin/intel64/icc (Intel) version 18.0.3.20180410
  C compiler flags      : -O3 -ip -fp-model precise -std=gnu99
  ELPA2 kernel          : AVX2
  Using MPI
  Using ScaLAPACK
  Using LibXC
  Using i-PI
  Using RLSY
  Linking against: /shared/ucl/apps/intel/2019.Update5/compilers_and_libraries_2019.5.281/linux/mkl/lib/intel64/libmkl_intel_lp64.so
                   /shared/ucl/apps/intel/2019.Update5/compilers_and_libraries_2019.5.281/linux/mkl/lib/intel64/libmkl_sequential.so
                   /shared/ucl/apps/intel/2019.Update5/compilers_and_libraries_2019.5.281/linux/mkl/lib/intel64/libmkl_core.so
                   /shared/ucl/apps/intel/2019.Update5/compilers_and_libraries_2019.5.281/linux/mkl/lib/intel64/libmkl_blacs_intelmpi_lp64.so
                   /shared/ucl/apps/intel/2019.Update5/compilers_and_libraries_2019.5.281/linux/mkl/lib/intel64/libmkl_scalapack_lp64.so

  Using       24 parallel tasks.
  Task        0 on host node-k98a-014 reporting.
  Task        1 on host node-k98a-014 reporting.
  Task        2 on host node-k98a-014 reporting.
  Task        3 on host node-k98a-014 reporting.
  Task        4 on host node-k98a-014 reporting.
  Task        5 on host node-k98a-014 reporting.
  Task        6 on host node-k98a-014 reporting.
  Task        7 on host node-k98a-014 reporting.
  Task        8 on host node-k98a-014 reporting.
  Task        9 on host node-k98a-014 reporting.
  Task       10 on host node-k98a-014 reporting.
  Task       11 on host node-k98a-014 reporting.
  Task       12 on host node-k98a-014 reporting.
  Task       13 on host node-k98a-014 reporting.
  Task       14 on host node-k98a-014 reporting.
  Task       15 on host node-k98a-014 reporting.
  Task       16 on host node-k98a-014 reporting.
  Task       17 on host node-k98a-014 reporting.
  Task       18 on host node-k98a-014 reporting.
  Task       19 on host node-k98a-014 reporting.
  Task       20 on host node-k98a-014 reporting.
  Task       21 on host node-k98a-014 reporting.
  Task       22 on host node-k98a-014 reporting.
  Task       23 on host node-k98a-014 reporting.

  Performing system and environment tests:
  | Environment variable OMP_NUM_THREADS correctly set to 1.
  | Checking for ScaLAPACK...
  | Testing pdtran()...
  | All pdtran() tests passed.

  Obtaining array dimensions for all initial allocations:
  
  -----------------------------------------------------------------------
  Parsing control.in (first pass over file, find array dimensions only).
  The contents of control.in will be repeated verbatim below
  unless switched off by setting 'verbatim_writeout .false.' .
  in the first line of control.in .
  -----------------------------------------------------------------------
  
  #########################################################################################  Physical model
  #########################################################################################
  xc                 pbesol
  spin               none
  relativistic       atomic_zora scalar
  charge             0.0
  #  SCF convergence
  occupation_type    gaussian 0.01
  mixer              pulay
  n_max_pulay        10
  charge_mix_param   0.5
  sc_accuracy_rho    1E-5
  sc_accuracy_eev    1E-3
  sc_accuracy_etot   1E-6
  sc_accuracy_forces 1E-4
  sc_iter_limit      1500
  #  Relaxation
  #relax_geometry   bfgs 1.e-3
  
  ################################################################################
  #
  #  FHI-aims code project
  #  VB, Fritz-Haber Institut, 2009
  #
  #  Suggested "light" defaults for Al atom (to be pasted into control.in file)
  #  Be sure to double-check any results obtained with these settings for post-processing,
  #  e.g., with the "tight" defaults and larger basis sets.
  #
  ################################################################################
    species        Al
  #     global species definitions
      nucleus             13
      mass                26.9815386
  #
      l_hartree           4
  #
      cut_pot             3.5          1.5  1.0
      basis_dep_cutoff    1e-4
  #
      radial_base         41 5.0
      radial_multiplier   1
      angular_grids       specified
        division   0.6594  110
        division   0.8170  194
        division   0.9059  302
  #      division   1.0363  434
  #      division   1.1443  590
  #      division   1.2621  770
  #      division   2.8177  974
  #      outer_grid   974
        outer_grid   302
  ################################################################################
  #
  #  Definition of "minimal" basis
  #
  ################################################################################
  #     valence basis states
      valence      3  s   2.
      valence      3  p   1.
  #     ion occupancy
      ion_occ      3  s   1.
      ion_occ      2  p   6.
  ################################################################################
  #
  #  Suggested additional basis functions. For production calculations,
  #  uncomment them one after another (the most important basis functions are
  #  listed first).
  #
  #  Constructed for dimers: 2.0 A, 2.5 A, 3.0 A, 3.75 A, 4.5 A
  #
  ################################################################################
  #  "First tier" - improvements: -199.47 meV to -10.63 meV
       ionic 3 d auto
       ionic 3 p auto
  #     hydro 4 f 4.7
       ionic 3 s auto
  #  "Second tier" - improvements: -5.35 meV to -1.57 meV
  #     hydro 5 g 7
  #     hydro 3 d 6
  #     hydro 2 s 11.6
  #     hydro 2 p 0.9
  #  "Third tier" - improvements: -0.63 meV to -0.20 meV
  #     hydro 5 f 7.6
  #     hydro 4 p 7.2
  #     hydro 4 s 3.7
  #     hydro 4 d 7.6
  #  "Fourth tier" - improvements: -0.17 meV to -0.08 meV
  #     hydro 4 d 13.6
  #     hydro 5 g 11.2
  #     hydro 4 d 0.9
  #     hydro 1 s 0.4
  #     hydro 4 p 0.1
  #     hydro 5 f 9.8
  #  Further basis functions that fell out of the optimization - noise level...
  #     hydro 4 p 5
  
  ################################################################################
  #
  #  FHI-aims code project
  #  VB, Fritz-Haber Institut, 2009
  #
  #  Suggested "light" defaults for F atom (to be pasted into control.in file)
  #  Be sure to double-check any results obtained with these settings for post-processing,
  #  e.g., with the "tight" defaults and larger basis sets.
  #
  ################################################################################
    species        F
  #     global species definitions
      nucleus             9
      mass                18.9984032
  #
      l_hartree           4
  #
      cut_pot             3.5  1.5  1.0
      basis_dep_cutoff    1e-4
  #
      radial_base         37 5.0
      radial_multiplier   1
      angular_grids specified
        division   0.4014  110
        division   0.5291  194
        division   0.6019  302
  #      division   0.6814  434
  #      division   0.7989  590
  #      division   0.8965  770
  #      division   1.3427  974
  #      outer_grid   974
        outer_grid   302
  ################################################################################
  #
  #  Definition of "minimal" basis
  #
  ################################################################################
  #     valence basis states
      valence      2  s   2.
      valence      2  p   5.
  #     ion occupancy
      ion_occ      2  s   1.
      ion_occ      2  p   4.
  ################################################################################
  #
  #  Suggested additional basis functions. For production calculations,
  #  uncomment them one after another (the most important basis functions are
  #  listed first).
  #
  #  Constructed for dimers: 1.2 A, 1.418 A, 1.75 A, 2.25 A, 3.25 A
  #
  ################################################################################
  #  "First tier" - improvements: -149.44 meV to -45.88 meV
       hydro 2 p 1.7
       hydro 3 d 7.4
       hydro 3 s 6.8
  #  "Second tier" - improvements: -12.96 meV to -1.56 meV
  #     hydro 4 f 11.2
  #     ionic 2 p auto
  #     hydro 1 s 0.75
  #     hydro 4 d 8.8
  #     hydro 5 g 16.8
  #  "Third tier" - improvements: -0.58 meV to -0.05 meV
  #     hydro 3 p 6.2
  #     hydro 3 s 3.2
  #     hydro 4 f 9.6
  #     hydro 3 s 19.6
  #     hydro 4 d 8.6
  #     hydro 5 g 14.4
  # Further basis functions: -0.05 meV and below
  #     hydro 3 p 4.2
  
  -----------------------------------------------------------------------
  Completed first pass over input file control.in .
  -----------------------------------------------------------------------
  
  
  -----------------------------------------------------------------------
  Parsing geometry.in (first pass over file, find array dimensions only).
  The contents of geometry.in will be repeated verbatim below
  unless switched off by setting 'verbatim_writeout .false.' .
  in the first line of geometry.in .
  -----------------------------------------------------------------------
  
  atom -0.353488638 0.977367760 -1.819798136 Al
  atom -0.449273981 1.095013891 1.280003201 Al
  atom -3.028434303 0.490498078 -1.856852409 Al
  atom -3.536617455 0.321135336 -3.597052161 F
  atom -1.413043558 -0.581094304 -1.814334538 F
  atom -1.907144893 2.062181989 -1.919011761 F
  atom -2.042518977 0.761102255 0.455782709 F
  atom 0.606409216 1.226517497 -0.296313175 F
  atom -0.258828381 2.766563204 1.956723571 F
  atom 0.322775408 -0.344828671 2.079936158 F
  atom -4.295426367 0.298908726 -0.578742513 F
  atom 0.766928219 1.140070703 -3.234436244 F
  
  -----------------------------------------------------------------------
  Completed first pass over input file geometry.in .
  -----------------------------------------------------------------------
  

  Basic array size parameters:
  | Number of species                 :        2
  | Number of atoms                   :       12
  | Max. basis fn. angular momentum   :        2
  | Max. atomic/ionic basis occupied n:        3
  | Max. number of basis fn. types    :        3
  | Max. radial fns per species/type  :        5
  | Max. logarithmic grid size        :     1340
  | Max. radial integration grid size :       41
  | Max. angular integration grid size:      302
  | Max. angular grid division number :        8
  | Radial grid for Hartree potential :     1340
  | Number of spin channels           :        1

------------------------------------------------------------
          Reading file control.in.
------------------------------------------------------------
  XC: Using PBEsol gradient-corrected functionals.
  Spin treatment: No spin polarisation.
  Scalar relativistic treatment of kinetic energy: on-site free-atom approximation to ZORA.
  Charge =   0.000000E+00: Neutral system requested explicitly.
  Occupation type: Gaussian broadening, width =   0.100000E-01 eV.
  Using pulay charge density mixing.
  Pulay mixing - number of memorized iterations:   10
  Charge density mixing - mixing parameter:     0.5000
  Convergence accuracy of self-consistent charge density:  0.1000E-04
  Convergence accuracy of sum of eigenvalues:  0.1000E-02
  Convergence accuracy of total energy:  0.1000E-05
  Convergence accuracy of forces:  0.1000E-03
  Maximum number of s.-c. iterations  :  1500
 
  Reading configuration options for species Al                  .
  | Found nuclear charge :  13.0000
  | Found atomic mass :    26.9815386000000      amu
  | Found l_max for Hartree potential  :   4
  | Found cutoff potl. onset [A], width [A], scale factor :    3.50000    1.50000    1.00000
  | Threshold for basis-dependent cutoff potential is   0.100000E-03
  | Found data for basic radial integration grid :    41 points, outermost radius =    5.000 A
  | Found multiplier for basic radial grid :   1
  | Found angular grid specification: user-specified.
  | Specified grid contains     4 separate shells.
  | Check grid settings after all constraints further below.
  | Found free-atom valence shell :  3 s   2.000
  | Found free-atom valence shell :  3 p   1.000
  | Found free-ion valence shell :  3 s   1.000
  | Found free-ion valence shell :  2 p   6.000
  | Found ionic basis function :  3 d , default cutoff radius.
  | Found ionic basis function :  3 p , default cutoff radius.
  | Found ionic basis function :  3 s , default cutoff radius.
  Species Al                  : Missing cutoff potential type.
  Defaulting to exp(1/x)/(1-x)^2 type cutoff potential.
  Species Al: No 'logarithmic' tag. Using default grid for free atom:
  | Default logarithmic grid data [bohr] : 0.1000E-03 0.1000E+03 0.1012E+01
  | Will include ionic basis functions of  2.0-fold positive Al                   ion.
  Species Al: On-site basis accuracy parameter (for Gram-Schmidt orthonormalisation) not specified.
  Using default value basis_acc =  0.1000000E-03.
  Species Al                  : Using default innermost maximum threshold i_radial=  2 for radial functions.
  Species Al                  : Default cutoff onset for free atom density etc. : 0.35000000E+01 AA.
  Species Al                  : Basic radial grid will be enhanced according to radial_multiplier =   1, to contain    41 grid points.
 
  Reading configuration options for species F                   .
  | Found nuclear charge :   9.0000
  | Found atomic mass :    18.9984032000000      amu
  | Found l_max for Hartree potential  :   4
  | Found cutoff potl. onset [A], width [A], scale factor :    3.50000    1.50000    1.00000
  | Threshold for basis-dependent cutoff potential is   0.100000E-03
  | Found data for basic radial integration grid :    37 points, outermost radius =    5.000 A
  | Found multiplier for basic radial grid :   1
  | Found angular grid specification: user-specified.
  | Specified grid contains     4 separate shells.
  | Check grid settings after all constraints further below.
  | Found free-atom valence shell :  2 s   2.000
  | Found free-atom valence shell :  2 p   5.000
  | Found free-ion valence shell :  2 s   1.000
  | Found free-ion valence shell :  2 p   4.000
  | Found hydrogenic basis function :  2 p   1.700
  | Found hydrogenic basis function :  3 d   7.400
  | Found hydrogenic basis function :  3 s   6.800
  Species F                   : Missing cutoff potential type.
  Defaulting to exp(1/x)/(1-x)^2 type cutoff potential.
  Species F : No 'logarithmic' tag. Using default grid for free atom:
  | Default logarithmic grid data [bohr] : 0.1000E-03 0.1000E+03 0.1012E+01
  Species F : On-site basis accuracy parameter (for Gram-Schmidt orthonormalisation) not specified.
  Using default value basis_acc =  0.1000000E-03.
  Species F                   : Using default innermost maximum threshold i_radial=  2 for radial functions.
  Species F                   : Default cutoff onset for free atom density etc. : 0.35000000E+01 AA.
  Species F                   : Basic radial grid will be enhanced according to radial_multiplier =   1, to contain    37 grid points.
 
  Finished reading input file 'control.in'.
 
------------------------------------------------------------


------------------------------------------------------------
          Reading geometry description geometry.in.
------------------------------------------------------------
  | The smallest distance between any two atoms is         1.80984537 AA.
  | The first atom of this pair is atom number                      3 .
  | The second atom of this pair is atom number                    11 .
  Input structure read successfully.
  The structure contains       12 atoms,  and a total of        120.000 electrons.

  Input geometry:
  | No unit cell requested.
  | Atomic structure:
  |       Atom                x [A]            y [A]            z [A]
  |    1: Species Al           -0.35348864        0.97736776       -1.81979814
  |    2: Species Al           -0.44927398        1.09501389        1.28000320
  |    3: Species Al           -3.02843430        0.49049808       -1.85685241
  |    4: Species F            -3.53661746        0.32113534       -3.59705216
  |    5: Species F            -1.41304356       -0.58109430       -1.81433454
  |    6: Species F            -1.90714489        2.06218199       -1.91901176
  |    7: Species F            -2.04251898        0.76110225        0.45578271
  |    8: Species F             0.60640922        1.22651750       -0.29631317
  |    9: Species F            -0.25882838        2.76656320        1.95672357
  |   10: Species F             0.32277541       -0.34482867        2.07993616
  |   11: Species F            -4.29542637        0.29890873       -0.57874251
  |   12: Species F             0.76692822        1.14007070       -3.23443624

 
  Finished reading input file 'control.in'.
 

------------------------------------------------------------
          Reading geometry description geometry.in.
------------------------------------------------------------
 
  Consistency checks for stacksize environment parameter are next.
 
  | Maximum stacksize for task 0: unlimited
  | Maximum stacksize for task 1: unlimited
  | Maximum stacksize for task 2: unlimited
  | Maximum stacksize for task 3: unlimited
  | Maximum stacksize for task 4: unlimited
  | Maximum stacksize for task 5: unlimited
  | Maximum stacksize for task 6: unlimited
  | Maximum stacksize for task 7: unlimited
  | Maximum stacksize for task 8: unlimited
  | Maximum stacksize for task 9: unlimited
  | Maximum stacksize for task 10: unlimited
  | Maximum stacksize for task 11: unlimited
  | Maximum stacksize for task 12: unlimited
  | Maximum stacksize for task 13: unlimited
  | Maximum stacksize for task 14: unlimited
  | Maximum stacksize for task 15: unlimited
  | Maximum stacksize for task 16: unlimited
  | Maximum stacksize for task 17: unlimited
  | Maximum stacksize for task 18: unlimited
  | Maximum stacksize for task 19: unlimited
  | Maximum stacksize for task 20: unlimited
  | Maximum stacksize for task 21: unlimited
  | Maximum stacksize for task 22: unlimited
  | Maximum stacksize for task 23: unlimited
  | Current stacksize for task 0: unlimited
  | Current stacksize for task 1: unlimited
  | Current stacksize for task 2: unlimited
  | Current stacksize for task 3: unlimited
  | Current stacksize for task 4: unlimited
  | Current stacksize for task 5: unlimited
  | Current stacksize for task 6: unlimited
  | Current stacksize for task 7: unlimited
  | Current stacksize for task 8: unlimited
  | Current stacksize for task 9: unlimited
  | Current stacksize for task 10: unlimited
  | Current stacksize for task 11: unlimited
  | Current stacksize for task 12: unlimited
  | Current stacksize for task 13: unlimited
  | Current stacksize for task 14: unlimited
  | Current stacksize for task 15: unlimited
  | Current stacksize for task 16: unlimited
  | Current stacksize for task 17: unlimited
  | Current stacksize for task 18: unlimited
  | Current stacksize for task 19: unlimited
  | Current stacksize for task 20: unlimited
  | Current stacksize for task 21: unlimited
  | Current stacksize for task 22: unlimited
  | Current stacksize for task 23: unlimited
 
  Consistency checks for the contents of control.in are next.
 
  MPI_IN_PLACE appears to work with this MPI implementation.
  | Keeping use_mpi_in_place .true. (see manual).
  Target number of points in a grid batch is not set. Defaulting to  100
  Method for grid partitioning is not set. Defaulting to parallel hash+maxmin partitioning.
  Batch size limit is not set. Defaulting to    200
  By default, will store active basis functions for each batch.
  If in need of memory, prune_basis_once .false. can be used to disable this option.
  communication_type for Hartree potential was not specified.
  Defaulting to calc_hartree .
  Pulay mixer: Number of initial linear mixing iterations not set.
  Defaulting to    0 iterations.
  Work space size for distributed Hartree potential not set.
  Defaulting to   0.200000E+03 MB.
  Algorithm-dependent basis array size parameters:
  | n_max_pulay                         :       10
  Presetting      1001 iterations before the initial mixing cycle
  is restarted anyway using the sc_init_iter criterion / keyword.
  Presetting a factor      1.000 between actual scf density residual
  and density convergence criterion sc_accuracy_rho below which sc_init_iter
  takes no effect.
  Geometry relaxation not requested: no relaxation will be performed.
  Forces evaluation will include force correction term due to incomplete self-consistency (default).
  Handling of forces: Unphysical translation and rotation will be removed from forces.
  No accuracy limit for integral partition fn. given. Defaulting to  0.1000E-14.
  No threshold value for u(r) in integrations given. Defaulting to  0.1000E-05.
  No accuracy for occupation numbers given. Defaulting to  0.1000E-12.
  No threshold value for occupation numbers given. Defaulting to  0.0000E+00.
  No accuracy for fermi level given. Defaulting to  0.1000E-19.
  Maximum # of iterations to find E_F not set. Defaulting to  200.
  Preferred method for the eigenvalue solver ('KS_method') not specified in 'control.in'.
  Calling BLACS routine to test compilation state
  Since ScaLAPACK support is enabled, defaulting to ELPA (via ELSI).
  Will not use alltoall communication since running on < 1024 CPUs.
  Threshold for basis singularities not set.
  Default threshold for basis singularities:  0.1000E-04
  partition_type (choice of integration weights) for integrals was not specified.
  | Using a version of the partition function of Stratmann and coworkers ('stratmann_sparse').
  | At each grid point, the set of atoms used to build the partition table is smoothly restricted to
  | only those atoms whose free-atom density would be non-zero at that grid point.
  Partitioning for Hartree potential was not defined. Using partition_type for integrals.
  | Adjusted default value of keyword multip_moments_threshold to:       0.10000000E-11
  | This value may affect high angular momentum components of the Hartree potential in periodic systems.
  No q(lm)/r^(l+1) cutoff set for long-range Hartree potential.
  | Using default value of  0.100000E-09 .
  | Verify using the multipole_threshold keyword.
  Defaulting to new monopole extrapolation.
  Density update method: automatic selection selected.
  Charge integration errors on the 3D integration grid will be compensated
  by explicit normalization and distribution of residual charges.
  Use the "compensate_multipole_errors" flag to change this behaviour.
  Set 'collect_eigenvectors' to be '.true.' for use_density_matrix .false.
 
  Consistency checks for the contents of geometry.in are next.
 
  Number of empty states per atom not set in control.in - providing a guess from actual geometry.
  | Total number of empty states used during s.c.f. cycle:       36
  If you use a very high smearing, use empty_states (per atom!) in control.in to increase this value.

  Structure-dependent array size parameters: 
  | Maximum number of distinct radial functions  :       14
  | Maximum number of basis functions            :      180
  | Number of Kohn-Sham states (occupied + empty):       96
------------------------------------------------------------

------------------------------------------------------------
          Preparing all fixed parts of the calculation.
------------------------------------------------------------
  Determining machine precision:
    2.225073858507201E-308
  Setting up grids for atomic and cluster calculations.

  Creating wave function, potential, and density for free atoms.

  Species: Al

  List of occupied orbitals and eigenvalues:
    n    l              occ      energy [Ha]    energy [eV]
    1    0           2.0000       -55.621123     -1513.5278
    2    0           2.0000        -3.957030      -107.6763
    3    0           2.0000        -0.272233        -7.4078
    2    1           6.0000        -2.540949       -69.1427
    3    1           1.0000        -0.083300        -2.2667


  Species: F

  List of occupied orbitals and eigenvalues:
    n    l              occ      energy [Ha]    energy [eV]
    1    0           2.0000       -24.399611      -663.9472
    2    0           2.0000        -1.098702       -29.8972
    2    1           5.0000        -0.408210       -11.1080


  Adding cutoff potential to free-atom effective potential.
  Creating fixed part of basis set: Ionic, confined, hydrogenic.
 
  Al                   ion:

  List of free ionic orbitals and eigenvalues:
    n    l      energy [Ha]    energy [eV]
    1    0       -56.418846     -1535.2349
    2    0        -4.732717      -128.7838
    3    0        -0.872690       -23.7471
    2    1        -3.317230       -90.2664


  List of ionic basis orbitals and eigenvalues:
    n    l      energy [Ha]    energy [eV]    outer radius [A]
    3    2        -0.346815        -9.4373       4.594041
    3    1        -0.631870       -17.1940       4.538221
    3    0        -0.872657       -23.7462       4.538221

 
  F                    hydrogenic:
 
  List of hydrogenic basis orbitals: 
    n    l      effective z      eigenvalue [eV]  inner max. [A]     outer max. [A]     outer radius [A]   
    2    1         1.700000        -9.7616           1.243167           1.243167           4.598524
    3    2         7.400000       -82.7828           0.642437           0.642437           3.305741
    3    0         6.800000       -69.9026           0.057798           1.022307           3.781556
 
  Creating atomic-like basis functions for current effective potential.

  Species Al                  :

  List of atomic basis orbitals and eigenvalues:
    n    l      energy [Ha]    energy [eV]    outer radius [A]
    1    0       -55.621123     -1513.5278       0.850197
    2    0        -3.957030      -107.6763       3.144911
    3    0        -0.272233        -7.4078       4.594041
    2    1        -2.540949       -69.1427       3.731966
    3    1        -0.083300        -2.2667       4.594041


  Species F                   :

  List of atomic basis orbitals and eigenvalues:
    n    l      energy [Ha]    energy [eV]    outer radius [A]
    1    0       -24.399611      -663.9472       1.258458
    2    0        -1.098702       -29.8972       4.325857
    2    1        -0.408210       -11.1080       4.487453

  Assembling full basis from fixed parts.
  | Species Al :   atomic orbital   1 s accepted.
  | Species Al :   atomic orbital   2 s accepted.
  | Species Al :    ionic orbital   3 s accepted.
  | Species Al :   atomic orbital   3 s accepted.
  | Species Al :   atomic orbital   2 p accepted.
  | Species Al :    ionic orbital   3 p accepted.
  | Species Al :   atomic orbital   3 p accepted.
  | Species Al :    ionic orbital   3 d accepted.
  | Species F :   atomic orbital   1 s accepted.
  | Species F :    hydro orbital   3 s accepted.
  | Species F :   atomic orbital   2 s accepted.
  | Species F :   atomic orbital   2 p accepted.
  | Species F :    hydro orbital   2 p accepted.
  | Species F :    hydro orbital   3 d accepted.
 
  Basis size parameters after reduction:
  | Total number of radial functions:       14
  | Total number of basis functions :      180
 
  Per-task memory consumption for arrays in subroutine allocate_ext:
  |           4.807768MB.
  Testing on-site integration grid accuracy.
  |  Species  Function  <phi|h_atom|phi> (log., in eV)  <phi|h_atom|phi> (rad., in eV)
           1        1              -1513.5277717935              -1513.5271881332
           1        2               -107.6762691836               -107.6762662489
           1        3                 -6.9467474784                 -6.9471269649
           1        4                  5.5771951849                  5.4862107220 ***
           1        5                -69.1427313144                -69.1427312731
           1        6                 -1.5197375330                 -1.5230432022
           1        7                  6.8210948310                  6.5529872240 ***
           1        8                  4.3216540965                  4.2851170187 ***
           2        9               -663.9471986398               -663.9470363334
           2       10                 16.8514011578                 16.8512525338
           2       11                -28.4490593856                -28.4490661472
           2       12                -11.1080115307                -11.1080620173
           2       13                  7.1940182175                  7.1685154137
           2       14                 44.8544281765                 44.8543763625
 * Note: Onsite integrals marked "***" above are less accurate than
 * onsite_accuracy_threshold =    0.03000 eV. Usually, this is harmless.
 * When in doubt, tighten the "radial" and/or "radial_multiplier" flags to check.

  Preparing densities etc. for the partition functions (integrals / Hartree potential).

  Preparations completed.
  max(cpu_time)          :      0.184 s.
  Wall clock time (cpu1) :      0.184 s.
------------------------------------------------------------

------------------------------------------------------------
          Begin self-consistency loop: Initialization.

          Date     :  20220517, Time     :  120058.457
------------------------------------------------------------

  Initializing index lists of integration centers etc. from given atomic structure:
  | Number of centers in hartree potential         :        12
  | Number of centers in hartree multipole         :        12
  | Number of centers in electron density summation:        12
  | Number of centers in basis integrals           :        12
  | Number of centers in integrals                 :        12
  | Number of centers in hamiltonian               :        12
  * Using 24 tasks for Scalapack Eigenvalue solver.
  Detailed listing of tasks and assigned k-points:
  (for non-periodic systems, the "k-point" denotes an internal label only)
   Task     0 k-point     1 on node-k98a-014
   Task     1 k-point     1 on node-k98a-014
   Task     2 k-point     1 on node-k98a-014
   Task     3 k-point     1 on node-k98a-014
   Task     4 k-point     1 on node-k98a-014
   Task     5 k-point     1 on node-k98a-014
   Task     6 k-point     1 on node-k98a-014
   Task     7 k-point     1 on node-k98a-014
   Task     8 k-point     1 on node-k98a-014
   Task     9 k-point     1 on node-k98a-014
   Task    10 k-point     1 on node-k98a-014
   Task    11 k-point     1 on node-k98a-014
   Task    12 k-point     1 on node-k98a-014
   Task    13 k-point     1 on node-k98a-014
   Task    14 k-point     1 on node-k98a-014
   Task    15 k-point     1 on node-k98a-014
   Task    16 k-point     1 on node-k98a-014
   Task    17 k-point     1 on node-k98a-014
   Task    18 k-point     1 on node-k98a-014
   Task    19 k-point     1 on node-k98a-014
   Task    20 k-point     1 on node-k98a-014
   Task    21 k-point     1 on node-k98a-014
   Task    22 k-point     1 on node-k98a-014
   Task    23 k-point     1 on node-k98a-014
  Tasks:    24 split into      6 X      4 BLACS grid
  Calculating block size based on n_basis =          180  max_nprow =            6  max_npcol =            4
  ScaLAPACK block size set to:           16
  Allocating        0.012 MB for ovlp
  Allocating        0.012 MB for ham
  Allocating        0.012 MB for eigenvec
  Required Scalapack workspace - INTEGER:            1  REAL:             1
  Partitioning the integration grid into batches with parallel hashing+maxmin method.
  | Number of batches:     1052
  | Maximal batch size:     191
  | Minimal batch size:      21
  | Average batch size:      87.376
  | Standard deviation of batch sizes:      29.068

  Integration load balanced across    24 MPI tasks.
  Work distribution over tasks is as follows:
  Task     0 has       3873 integration points.
  Task     1 has       3849 integration points.
  Task     2 has       3821 integration points.
  Task     3 has       3855 integration points.
  Task     4 has       3775 integration points.
  Task     5 has       3857 integration points.
  Task     6 has       3815 integration points.
  Task     7 has       3812 integration points.
  Task     8 has       3854 integration points.
  Task     9 has       3806 integration points.
  Task    10 has       3826 integration points.
  Task    11 has       3848 integration points.
  Task    12 has       3814 integration points.
  Task    13 has       3857 integration points.
  Task    14 has       3808 integration points.
  Task    15 has       3866 integration points.
  Task    16 has       3856 integration points.
  Task    17 has       3819 integration points.
  Task    18 has       3795 integration points.
  Task    19 has       3881 integration points.
  Task    20 has       3815 integration points.
  Task    21 has       3826 integration points.
  Task    22 has       3761 integration points.
  Task    23 has       3831 integration points.
  Initializing partition tables, free-atom densities, potentials, etc. across the integration grid (initialize_grid_storage).
  | initialize_grid_storage: Actual outermost partition radius vs. multipole_radius_free
  | (-- VB: in principle, multipole_radius_free should be larger, hence this output)
  | Species        1: Confinement radius =              4.999999999999999 AA, multipole_radius_free =              5.004487022111096 AA.
  | Species        1: outer_partition_radius set to              5.004487022111096 AA .
  | Species        2: Confinement radius =              4.999999999999999 AA, multipole_radius_free =              5.009370088163274 AA.
  | Species        2: outer_partition_radius set to              5.009370088163274 AA .
  | The sparse table of interatomic distances needs          1.64 kbyte instead of         1.15 kbyte of memory.
  | Using the partition_type stratmann_smoother will reduce your memory usage.
  | Net number of integration points:    91920
  | of which are non-zero points    :    85661
  Renormalizing the initial density to the exact electron count on the 3D integration grid.
  | Initial density: Formal number of electrons (from input files) :     120.0000000000
  | Integrated number of electrons on 3D grid     :     119.9999160715
  | Charge integration error                      :      -0.0000839285
  | Normalization factor for density and gradient :       1.0000006994
  Renormalizing the free-atom superposition density to the exact electron count on the 3D integration grid.
  | Formal number of electrons (from input files) :     120.0000000000
  | Integrated number of electrons on 3D grid     :     119.9999160715
  | Charge integration error                      :      -0.0000839285
  | Normalization factor for density and gradient :       1.0000006994
  Obtaining max. number of non-zero basis functions in each batch (get_n_compute_maxes).
  | Maximal number of non-zero basis functions:      165 in task     0
  | Maximal number of non-zero basis functions:      169 in task     1
  | Maximal number of non-zero basis functions:      160 in task     2
  | Maximal number of non-zero basis functions:      170 in task     3
  | Maximal number of non-zero basis functions:      165 in task     4
  | Maximal number of non-zero basis functions:      170 in task     5
  | Maximal number of non-zero basis functions:      162 in task     6
  | Maximal number of non-zero basis functions:      171 in task     7
  | Maximal number of non-zero basis functions:      172 in task     8
  | Maximal number of non-zero basis functions:      160 in task     9
  | Maximal number of non-zero basis functions:      160 in task    10
  | Maximal number of non-zero basis functions:      166 in task    11
  | Maximal number of non-zero basis functions:      165 in task    12
  | Maximal number of non-zero basis functions:      158 in task    13
  | Maximal number of non-zero basis functions:      169 in task    14
  | Maximal number of non-zero basis functions:      164 in task    15
  | Maximal number of non-zero basis functions:      165 in task    16
  | Maximal number of non-zero basis functions:      164 in task    17
  | Maximal number of non-zero basis functions:      160 in task    18
  | Maximal number of non-zero basis functions:      166 in task    19
  | Maximal number of non-zero basis functions:      164 in task    20
  | Maximal number of non-zero basis functions:      165 in task    21
  | Maximal number of non-zero basis functions:      165 in task    22
  | Maximal number of non-zero basis functions:      164 in task    23
  Selecting the method for density update.
  Loop over occupied states selected for charge density update.
  Allocating        0.132 MB for KS_eigenvector
  Integrating Hamiltonian matrix: batch-based integration.
  Time summed over all CPUs for integration: real work        0.701 s, elapsed        0.732 s
  Integrating overlap matrix.
  Time summed over all CPUs for integration: real work        0.274 s, elapsed        0.293 s
  Deallocating overlap matrix.

  Updating Kohn-Sham eigenvalues and eigenvectors using ELSI and the ELPA eigensolver.
  Overlap matrix is not singular
  | Lowest and highest eigenvalues :  0.3554E-02,  0.5211E+01
  Finished singularity check of overlap matrix
  | Time :     0.004 s
  Starting ELPA eigensolver
  Finished Cholesky decomposition
  | Time :     0.002 s
  Finished transformation to standard eigenproblem
  | Time :     0.001 s
  Finished solving standard eigenproblem
  | Time :     0.003 s
  Finished back-transformation of eigenvectors
  | Time :     0.000 s

  Obtaining occupation numbers and chemical potential using ELSI.
  | Chemical potential (Fermi level):    -7.75244961 eV
  Writing Kohn-Sham eigenvalues.

  State    Occupation    Eigenvalue [Ha]    Eigenvalue [eV]
      1       2.00000         -55.484899        -1509.82092
      2       2.00000         -55.484189        -1509.80161
      3       2.00000         -55.483186        -1509.77432
      4       2.00000         -24.370483         -663.15459
      5       2.00000         -24.360234         -662.87569
      6       2.00000         -24.359619         -662.85895
      7       2.00000         -24.344956         -662.45997
      8       2.00000         -24.341348         -662.36178
      9       2.00000         -24.341050         -662.35368
     10       2.00000         -24.340882         -662.34910
     11       2.00000         -24.340213         -662.33088
     12       2.00000         -24.340029         -662.32589
     13       2.00000          -3.950347         -107.49440
     14       2.00000          -3.949243         -107.46437
     15       2.00000          -3.948211         -107.43630
     16       2.00000          -2.543216          -69.20443
     17       2.00000          -2.542445          -69.18345
     18       2.00000          -2.542095          -69.17393
     19       2.00000          -2.541220          -69.15010
     20       2.00000          -2.541075          -69.14616
     21       2.00000          -2.540556          -69.13206
     22       2.00000          -2.540392          -69.12759
     23       2.00000          -2.539885          -69.11378
     24       2.00000          -2.539346          -69.09911
     25       2.00000          -1.194410          -32.50155
     26       2.00000          -1.185808          -32.26748
     27       2.00000          -1.175434          -31.98518
     28       2.00000          -1.158847          -31.53383
     29       2.00000          -1.150489          -31.30640
     30       2.00000          -1.149623          -31.28284
     31       2.00000          -1.149185          -31.27093
     32       2.00000          -1.147624          -31.22843
     33       2.00000          -1.146924          -31.20938
     34       2.00000          -0.560015          -15.23878
     35       2.00000          -0.547069          -14.88650
     36       2.00000          -0.542856          -14.77187
     37       2.00000          -0.517841          -14.09117
     38       2.00000          -0.515739          -14.03397
     39       2.00000          -0.512547          -13.94711
     40       2.00000          -0.498121          -13.55455
     41       2.00000          -0.497833          -13.54673
     42       2.00000          -0.495530          -13.48407
     43       2.00000          -0.488344          -13.28852
     44       2.00000          -0.484535          -13.18487
     45       2.00000          -0.483711          -13.16244
     46       2.00000          -0.480281          -13.06910
     47       2.00000          -0.478915          -13.03193
     48       2.00000          -0.478153          -13.01121
     49       2.00000          -0.458607          -12.47934
     50       2.00000          -0.456946          -12.43414
     51       2.00000          -0.454878          -12.37785
     52       2.00000          -0.452913          -12.32439
     53       2.00000          -0.452501          -12.31318
     54       2.00000          -0.451616          -12.28909
     55       2.00000          -0.451568          -12.28780
     56       2.00000          -0.448722          -12.21036
     57       2.00000          -0.448449          -12.20293
     58       2.00000          -0.447962          -12.18967
     59       2.00000          -0.444415          -12.09316
     60       2.00000          -0.442347          -12.03688
     61       0.00000          -0.141524           -3.85106
     62       0.00000          -0.096003           -2.61239
     63       0.00000          -0.077536           -2.10986
     64       0.00000          -0.031930           -0.86885
     65       0.00000          -0.013068           -0.35560
     66       0.00000           0.000193            0.00526
     67       0.00000           0.007861            0.21391
     68       0.00000           0.025139            0.68407
     69       0.00000           0.037422            1.01831
     70       0.00000           0.050911            1.38536
     71       0.00000           0.076396            2.07884
     72       0.00000           0.102538            2.79019
     73       0.00000           0.145804            3.96754
     74       0.00000           0.162386            4.41873
     75       0.00000           0.169161            4.60311
     76       0.00000           0.169888            4.62288
     77       0.00000           0.179237            4.87730
     78       0.00000           0.184211            5.01263
     79       0.00000           0.191837            5.22015
     80       0.00000           0.200952            5.46818
     81       0.00000           0.205855            5.60159
     82       0.00000           0.217089            5.90729
     83       0.00000           0.228149            6.20826
     84       0.00000           0.239512            6.51746
     85       0.00000           0.240111            6.53375
     86       0.00000           0.242630            6.60230
     87       0.00000           0.274360            7.46572
     88       0.00000           0.275921            7.50820
     89       0.00000           0.290465            7.90396
     90       0.00000           0.297462            8.09434
     91       0.00000           0.309881            8.43229
     92       0.00000           0.317476            8.63895
     93       0.00000           0.342664            9.32436
     94       0.00000           0.344224            9.36680
     95       0.00000           0.364242            9.91153
     96       0.00000           0.369648           10.05864

  Highest occupied state (VBM) at    -12.03688202 eV
  | Occupation number:      2.00000000

  Lowest unoccupied state (CBM) at    -3.85105993 eV
  | Occupation number:      0.00000000

  Overall HOMO-LUMO gap:      8.18582209 eV.
  Calculating total energy contributions from superposition of free atom densities.

  Total energy components:
  | Sum of eigenvalues            :        -887.51975959 Ha      -24150.64142942 eV
  | XC energy correction          :        -144.31990751 Ha       -3927.14449428 eV
  | XC potential correction       :         187.91211708 Ha        5113.34886996 eV
  | Free-atom electrostatic energy:        -781.43200021 Ha      -21263.84661824 eV
  | Hartree energy correction     :           0.00000000 Ha           0.00000000 eV
  | Entropy correction            :           0.00000000 Ha           0.00000000 eV
  | ---------------------------
  | Total energy                  :       -1625.35955023 Ha      -44228.28367198 eV
  | Total energy, T -> 0          :       -1625.35955023 Ha      -44228.28367198 eV  <-- do not rely on this value for anything but (periodic) metals
  | Electronic free energy        :       -1625.35955023 Ha      -44228.28367198 eV

  Derived energy quantities:
  | Kinetic energy                :        1627.56973546 Ha       44288.42587213 eV
  | Electrostatic energy          :       -3108.60937817 Ha      -84589.56504982 eV
  | Energy correction for multipole
  | error in Hartree potential    :           0.00000000 Ha           0.00000000 eV
  | Sum of eigenvalues per atom                           :       -2012.55345245 eV
  | Total energy (T->0) per atom                          :       -3685.69030600 eV  <-- do not rely on this value for anything but (periodic) metals
  | Electronic free energy per atom                       :       -3685.69030600 eV
  Initialize hartree_potential_storage
  Max. number of atoms included in rho_multipole:           12

  End scf initialization - timings             :  max(cpu_time)    wall_clock(cpu1)
  | Time for scf. initialization                :        0.112 s           0.113 s
  | Boundary condition initialization           :        0.000 s           0.000 s
  | Integration                                 :        0.044 s           0.045 s
  | Solution of K.-S. eqns.                     :        0.011 s           0.011 s
  | Grid partitioning                           :        0.035 s           0.034 s
  | Preloading free-atom quantities on grid     :        0.015 s           0.015 s
  | Free-atom superposition energy              :        0.005 s           0.005 s
  | Total energy evaluation                     :        0.000 s           0.000 s

  Partial memory accounting:
  | Current value for overall tracked memory usage:
  |   Minimum:        0.273 MB (on task 23)
  |   Maximum:        0.292 MB (on task  0)
  |   Average:        0.287 MB
  | Peak value for overall tracked memory usage:
  |   Minimum:        1.301 MB (on task 13 after allocating wave)
  |   Maximum:        1.398 MB (on task  8 after allocating wave)
  |   Average:        1.344 MB
  | Largest tracked array allocation so far:
  |   Minimum:        0.230 MB (H_times_psi on task 13)
  |   Maximum:        0.458 MB (all_coords on task 10)
  |   Average:        0.266 MB
  Note:  These values currently only include a subset of arrays which are explicitly tracked.
  The "true" memory usage will be greater.
------------------------------------------------------------
  Evaluating new KS density.
  Integration grid: deviation in total charge (<rho> - N_e) =   1.421085E-14

  Time for density update prior                :  max(cpu_time)    wall_clock(cpu1)
  | self-consistency iterative process          :        0.028 s           0.028 s

------------------------------------------------------------
          Begin self-consistency iteration #    1

  Date     :  20220517, Time     :  120058.598
------------------------------------------------------------
  Pulay mixing of updated and previous charge densities.
  Renormalizing the density to the exact electron count on the 3D integration grid.
  | Formal number of electrons (from input files) :     120.0000000000
  | Integrated number of electrons on 3D grid     :     120.0000000000
  | Charge integration error                      :       0.0000000000
  | Normalization factor for density and gradient :       1.0000000000

  Evaluating partitioned Hartree potential by multipole expansion.
  | Original multipole sum: apparent total charge =   0.174398E-13
  | Sum of charges compensated after spline to logarithmic grids =   0.118309E-03
  | Analytical far-field extrapolation by fixed multipoles:
  | Hartree multipole sum: apparent total charge =   0.190141E-13
  Summing up the Hartree potential.
  Time summed over all CPUs for potential: real work        0.383 s, elapsed        0.416 s
  | RMS charge density error from multipole expansion :   0.106550E-01

  Integrating Hamiltonian matrix: batch-based integration.
  Time summed over all CPUs for integration: real work        0.663 s, elapsed        0.698 s

  Updating Kohn-Sham eigenvalues and eigenvectors using ELSI and the ELPA eigensolver.
  Starting ELPA eigensolver
  Finished transformation to standard eigenproblem
  | Time :     0.000 s
  Finished solving standard eigenproblem
  | Time :     0.003 s
  Finished back-transformation of eigenvectors
  | Time :     0.001 s

  Obtaining occupation numbers and chemical potential using ELSI.
  | Chemical potential (Fermi level):    -7.81460999 eV
  Writing Kohn-Sham eigenvalues.

  State    Occupation    Eigenvalue [Ha]    Eigenvalue [eV]
      1       2.00000         -55.678173        -1515.08018
      2       2.00000         -55.643910        -1514.14782
      3       2.00000         -55.621533        -1513.53893
      4       2.00000         -24.258436         -660.10564
      5       2.00000         -24.248807         -659.84362
      6       2.00000         -24.247631         -659.81162
      7       2.00000         -24.149965         -657.15398
      8       2.00000         -24.084298         -655.36708
      9       2.00000         -24.066497         -654.88270
     10       2.00000         -24.063241         -654.79410
     11       2.00000         -24.062267         -654.76761
     12       2.00000         -24.061887         -654.75726
     13       2.00000          -4.117144         -112.03318
     14       2.00000          -4.082222         -111.08292
     15       2.00000          -4.062029         -110.53343
     16       2.00000          -2.710515          -73.75687
     17       2.00000          -2.709877          -73.73952
     18       2.00000          -2.709048          -73.71693
     19       2.00000          -2.675819          -72.81275
     20       2.00000          -2.675586          -72.80640
     21       2.00000          -2.673192          -72.74126
     22       2.00000          -2.656079          -72.27560
     23       2.00000          -2.654420          -72.23044
     24       2.00000          -2.653451          -72.20407
     25       2.00000          -1.179245          -32.08889
     26       2.00000          -1.170749          -31.85770
     27       2.00000          -1.157266          -31.49081
     28       2.00000          -1.080499          -29.40187
     29       2.00000          -1.030976          -28.05428
     30       2.00000          -1.014779          -27.61355
     31       2.00000          -1.012024          -27.53856
     32       2.00000          -1.008474          -27.44198
     33       2.00000          -1.007570          -27.41738
     34       2.00000          -0.560625          -15.25538
     35       2.00000          -0.542832          -14.77122
     36       2.00000          -0.531706          -14.46847
     37       2.00000          -0.509411          -13.86177
     38       2.00000          -0.502392          -13.67079
     39       2.00000          -0.478277          -13.01458
     40       2.00000          -0.474797          -12.91990
     41       2.00000          -0.462684          -12.59027
     42       2.00000          -0.452984          -12.32632
     43       2.00000          -0.443641          -12.07209
     44       2.00000          -0.399436          -10.86920
     45       2.00000          -0.391298          -10.64777
     46       2.00000          -0.388843          -10.58097
     47       2.00000          -0.387454          -10.54317
     48       2.00000          -0.381126          -10.37097
     49       2.00000          -0.359385           -9.77935
     50       2.00000          -0.355629           -9.67717
     51       2.00000          -0.340800           -9.27364
     52       2.00000          -0.339794           -9.24627
     53       2.00000          -0.328531           -8.93979
     54       2.00000          -0.327365           -8.90806
     55       2.00000          -0.325057           -8.84525
     56       2.00000          -0.323032           -8.79014
     57       2.00000          -0.317003           -8.62610
     58       2.00000          -0.315180           -8.57648
     59       2.00000          -0.310817           -8.45777
     60       2.00000          -0.306776           -8.34781
     61       0.00000          -0.159367           -4.33659
     62       0.00000          -0.089760           -2.44249
     63       0.00000          -0.081641           -2.22158
     64       0.00000          -0.060562           -1.64797
     65       0.00000          -0.031904           -0.86816
     66       0.00000          -0.019689           -0.53577
     67       0.00000          -0.004596           -0.12506
     68       0.00000           0.020516            0.55827
     69       0.00000           0.032791            0.89230
     70       0.00000           0.042489            1.15619
     71       0.00000           0.052567            1.43042
     72       0.00000           0.086843            2.36313
     73       0.00000           0.134097            3.64898
     74       0.00000           0.157441            4.28418
     75       0.00000           0.158380            4.30975
     76       0.00000           0.167225            4.55043
     77       0.00000           0.183428            4.99133
     78       0.00000           0.186047            5.06260
     79       0.00000           0.189914            5.16783
     80       0.00000           0.201028            5.47025
     81       0.00000           0.205952            5.60423
     82       0.00000           0.210540            5.72909
     83       0.00000           0.218909            5.95681
     84       0.00000           0.224388            6.10590
     85       0.00000           0.228834            6.22690
     86       0.00000           0.232910            6.33782
     87       0.00000           0.250644            6.82038
     88       0.00000           0.265039            7.21208
     89       0.00000           0.272404            7.41249
     90       0.00000           0.292871            7.96942
     91       0.00000           0.302480            8.23091
     92       0.00000           0.321110            8.73784
     93       0.00000           0.334408            9.09971
     94       0.00000           0.348938            9.49507
     95       0.00000           0.364810            9.92698
     96       0.00000           0.369629           10.05810

  Highest occupied state (VBM) at     -8.34781001 eV
  | Occupation number:      2.00000000

  Lowest unoccupied state (CBM) at    -4.33659497 eV
  | Occupation number:      0.00000000

  Overall HOMO-LUMO gap:      4.01121505 eV.

  Total energy components:
  | Sum of eigenvalues            :        -882.16897548 Ha      -24005.03918585 eV
  | XC energy correction          :        -145.66488211 Ha       -3963.74311530 eV
  | XC potential correction       :         189.68015023 Ha        5161.45949983 eV
  | Free-atom electrostatic energy:        -781.43200021 Ha      -21263.84661824 eV
  | Hartree energy correction     :          -5.55243954 Ha        -151.08956737 eV
  | Entropy correction            :           0.00000000 Ha           0.00000000 eV
  | ---------------------------
  | Total energy                  :       -1625.13814712 Ha      -44222.25898693 eV
  | Total energy, T -> 0          :       -1625.13814712 Ha      -44222.25898693 eV  <-- do not rely on this value for anything but (periodic) metals
  | Electronic free energy        :       -1625.13814712 Ha      -44222.25898693 eV

  Derived energy quantities:
  | Kinetic energy                :        1634.00815512 Ha       44463.62418509 eV
  | Electrostatic energy          :       -3113.48142013 Ha      -84722.14005672 eV
  | Energy correction for multipole
  | error in Hartree potential    :           0.03985411 Ha           1.08448552 eV
  | Sum of eigenvalues per atom                           :       -2000.41993215 eV
  | Total energy (T->0) per atom                          :       -3685.18824891 eV  <-- do not rely on this value for anything but (periodic) metals
  | Electronic free energy per atom                       :       -3685.18824891 eV
  Evaluating new KS density.
  Integration grid: deviation in total charge (<rho> - N_e) =   1.421085E-14

  Self-consistency convergence accuracy:
  | Change of charge density      :  0.6038E+00
  | Change of sum of eigenvalues  :  0.1456E+03 eV
  | Change of total energy        :  0.6025E+01 eV


------------------------------------------------------------
  End self-consistency iteration #     1       :  max(cpu_time)    wall_clock(cpu1)
  | Time for this iteration                     :        0.081 s           0.082 s
  | Charge density update                       :        0.027 s           0.027 s
  | Density mixing                              :        0.001 s           0.001 s
  | Hartree multipole update                    :        0.001 s           0.001 s
  | Hartree multipole summation                 :        0.018 s           0.018 s
  | Integration                                 :        0.030 s           0.030 s
  | Solution of K.-S. eqns.                     :        0.004 s           0.004 s
  | Total energy evaluation                     :        0.000 s           0.001 s

  Partial memory accounting:
  | Current value for overall tracked memory usage:
  |   Minimum:        0.273 MB (on task 23)
  |   Maximum:        0.292 MB (on task  0)
  |   Average:        0.287 MB
  | Peak value for overall tracked memory usage:
  |   Minimum:        1.301 MB (on task 13 after allocating wave)
  |   Maximum:        1.398 MB (on task  8 after allocating wave)
  |   Average:        1.344 MB
  | Largest tracked array allocation so far:
  |   Minimum:        0.691 MB (gradient_basis_wave on task 13)
  |   Maximum:        0.752 MB (gradient_basis_wave on task  8)
  |   Average:        0.721 MB
  Note:  These values currently only include a subset of arrays which are explicitly tracked.
  The "true" memory usage will be greater.
------------------------------------------------------------

------------------------------------------------------------
          Begin self-consistency iteration #    2

  Date     :  20220517, Time     :  120058.685
------------------------------------------------------------
  Pulay mixing of updated and previous charge densities.
  Renormalizing the density to the exact electron count on the 3D integration grid.
  | Formal number of electrons (from input files) :     120.0000000000
  | Integrated number of electrons on 3D grid     :     120.0000000000
  | Charge integration error                      :       0.0000000000
  | Normalization factor for density and gradient :       1.0000000000

  Evaluating partitioned Hartree potential by multipole expansion.
  | Original multipole sum: apparent total charge =   0.376345E-14
  | Sum of charges compensated after spline to logarithmic grids =   0.816601E-04
  | Analytical far-field extrapolation by fixed multipoles:
  | Hartree multipole sum: apparent total charge =   0.373886E-14
  Summing up the Hartree potential.
  Time summed over all CPUs for potential: real work        0.382 s, elapsed        0.423 s
  | RMS charge density error from multipole expansion :   0.125984E-01

  Integrating Hamiltonian matrix: batch-based integration.
  Time summed over all CPUs for integration: real work        0.662 s, elapsed        0.697 s

  Updating Kohn-Sham eigenvalues and eigenvectors using ELSI and the ELPA eigensolver.
  Starting ELPA eigensolver
  Finished transformation to standard eigenproblem
  | Time :     0.001 s
  Finished solving standard eigenproblem
  | Time :     0.003 s
  Finished back-transformation of eigenvectors
  | Time :     0.000 s

  Obtaining occupation numbers and chemical potential using ELSI.
  | Chemical potential (Fermi level):    -7.95239359 eV
  Highest occupied state (VBM) at     -9.53577964 eV
  | Occupation number:      2.00000000

  Lowest unoccupied state (CBM) at    -4.56515752 eV
  | Occupation number:      0.00000000

  Overall HOMO-LUMO gap:      4.97062213 eV.

  Checking to see if s.c.f. parameters should be adjusted.

  Total energy components:
  | Sum of eigenvalues            :        -885.35875883 Ha      -24091.83760693 eV
  | XC energy correction          :        -145.16827867 Ha       -3950.22984797 eV
  | XC potential correction       :         189.02681344 Ha        5143.68130131 eV
  | Free-atom electrostatic energy:        -781.43200021 Ha      -21263.84661824 eV
  | Hartree energy correction     :          -2.14106814 Ha         -58.26142847 eV
  | Entropy correction            :           0.00000000 Ha           0.00000000 eV
  | ---------------------------
  | Total energy                  :       -1625.07329240 Ha      -44220.49420029 eV
  | Total energy, T -> 0          :       -1625.07329240 Ha      -44220.49420029 eV  <-- do not rely on this value for anything but (periodic) metals
  | Electronic free energy        :       -1625.07329240 Ha      -44220.49420029 eV

  Derived energy quantities:
  | Kinetic energy                :        1630.09099498 Ha       44357.03283436 eV
  | Electrostatic energy          :       -3109.99600872 Ha      -84627.29718669 eV
  | Energy correction for multipole
  | error in Hartree potential    :           0.04373625 Ha           1.19012391 eV
  | Sum of eigenvalues per atom                           :       -2007.65313391 eV
  | Total energy (T->0) per atom                          :       -3685.04118336 eV  <-- do not rely on this value for anything but (periodic) metals
  | Electronic free energy per atom                       :       -3685.04118336 eV
  Evaluating new KS density.
  Integration grid: deviation in total charge (<rho> - N_e) =   2.842171E-14

  Self-consistency convergence accuracy:
  | Change of charge density      :  0.4795E+00
  | Change of sum of eigenvalues  : -0.8680E+02 eV
  | Change of total energy        :  0.1765E+01 eV


------------------------------------------------------------
  End self-consistency iteration #     2       :  max(cpu_time)    wall_clock(cpu1)
  | Time for this iteration                     :        0.084 s           0.082 s
  | Charge density update                       :        0.027 s           0.027 s
  | Density mixing                              :        0.004 s           0.002 s
  | Hartree multipole update                    :        0.001 s           0.001 s
  | Hartree multipole summation                 :        0.018 s           0.018 s
  | Integration                                 :        0.029 s           0.029 s
  | Solution of K.-S. eqns.                     :        0.004 s           0.004 s
  | Total energy evaluation                     :        0.000 s           0.000 s

  Partial memory accounting:
  | Current value for overall tracked memory usage:
  |   Minimum:        0.274 MB (on task 23)
  |   Maximum:        0.293 MB (on task  0)
  |   Average:        0.288 MB
  | Peak value for overall tracked memory usage:
  |   Minimum:        1.301 MB (on task 13 after allocating wave)
  |   Maximum:        1.398 MB (on task  8 after allocating wave)
  |   Average:        1.344 MB
  | Largest tracked array allocation so far:
  |   Minimum:        0.691 MB (gradient_basis_wave on task 13)
  |   Maximum:        0.752 MB (gradient_basis_wave on task  8)
  |   Average:        0.721 MB
  Note:  These values currently only include a subset of arrays which are explicitly tracked.
  The "true" memory usage will be greater.
------------------------------------------------------------

------------------------------------------------------------
          Begin self-consistency iteration #    3

  Date     :  20220517, Time     :  120058.773
------------------------------------------------------------
  Pulay mixing of updated and previous charge densities.
  Renormalizing the density to the exact electron count on the 3D integration grid.
  | Formal number of electrons (from input files) :     120.0000000000
  | Integrated number of electrons on 3D grid     :     120.0000000000
  | Charge integration error                      :       0.0000000000
  | Normalization factor for density and gradient :       1.0000000000

  Evaluating partitioned Hartree potential by multipole expansion.
  | Original multipole sum: apparent total charge =  -0.336497E-13
  | Sum of charges compensated after spline to logarithmic grids =   0.106497E-03
  | Analytical far-field extrapolation by fixed multipoles:
  | Hartree multipole sum: apparent total charge =  -0.335513E-13
  Summing up the Hartree potential.
  Time summed over all CPUs for potential: real work        0.382 s, elapsed        0.423 s
  | RMS charge density error from multipole expansion :   0.174923E-01

  Integrating Hamiltonian matrix: batch-based integration.
  Time summed over all CPUs for integration: real work        0.662 s, elapsed        0.697 s

  Updating Kohn-Sham eigenvalues and eigenvectors using ELSI and the ELPA eigensolver.
  Starting ELPA eigensolver
  Finished transformation to standard eigenproblem
  | Time :     0.000 s
  Finished solving standard eigenproblem
  | Time :     0.003 s
  Finished back-transformation of eigenvectors
  | Time :     0.000 s

  Obtaining occupation numbers and chemical potential using ELSI.
  | Chemical potential (Fermi level):    -8.13211434 eV
  Highest occupied state (VBM) at     -9.27390361 eV
  | Occupation number:      2.00000000

  Lowest unoccupied state (CBM) at    -4.82944574 eV
  | Occupation number:      0.00000000

  Overall HOMO-LUMO gap:      4.44445786 eV.

  Total energy components:
  | Sum of eigenvalues            :        -886.40443915 Ha      -24120.29201616 eV
  | XC energy correction          :        -145.13288263 Ha       -3949.26667271 eV
  | XC potential correction       :         188.97898252 Ha        5142.37975580 eV
  | Free-atom electrostatic energy:        -781.43200021 Ha      -21263.84661824 eV
  | Hartree energy correction     :          -1.08200418 Ha         -29.44283186 eV
  | Entropy correction            :           0.00000000 Ha           0.00000000 eV
  | ---------------------------
  | Total energy                  :       -1625.07234364 Ha      -44220.46838318 eV
  | Total energy, T -> 0          :       -1625.07234364 Ha      -44220.46838318 eV  <-- do not rely on this value for anything but (periodic) metals
  | Electronic free energy        :       -1625.07234364 Ha      -44220.46838318 eV

  Derived energy quantities:
  | Kinetic energy                :        1628.32641619 Ha       44309.01620239 eV
  | Electrostatic energy          :       -3108.26587720 Ha      -84580.21791285 eV
  | Energy correction for multipole
  | error in Hartree potential    :           0.05887272 Ha           1.60200830 eV
  | Sum of eigenvalues per atom                           :       -2010.02433468 eV
  | Total energy (T->0) per atom                          :       -3685.03903193 eV  <-- do not rely on this value for anything but (periodic) metals
  | Electronic free energy per atom                       :       -3685.03903193 eV
  Evaluating new KS density.
  Integration grid: deviation in total charge (<rho> - N_e) =   0.000000E+00

  Self-consistency convergence accuracy:
  | Change of charge density      :  0.1267E+00
  | Change of sum of eigenvalues  : -0.2845E+02 eV
  | Change of total energy        :  0.2582E-01 eV


------------------------------------------------------------
  End self-consistency iteration #     3       :  max(cpu_time)    wall_clock(cpu1)
  | Time for this iteration                     :        0.084 s           0.081 s
  | Charge density update                       :        0.027 s           0.027 s
  | Density mixing                              :        0.004 s           0.001 s
  | Hartree multipole update                    :        0.001 s           0.001 s
  | Hartree multipole summation                 :        0.018 s           0.018 s
  | Integration                                 :        0.029 s           0.030 s
  | Solution of K.-S. eqns.                     :        0.004 s           0.004 s
  | Total energy evaluation                     :        0.000 s           0.000 s

  Partial memory accounting:
  | Current value for overall tracked memory usage:
  |   Minimum:        0.274 MB (on task 23)
  |   Maximum:        0.293 MB (on task  0)
  |   Average:        0.288 MB
  | Peak value for overall tracked memory usage:
  |   Minimum:        1.301 MB (on task 13 after allocating wave)
  |   Maximum:        1.398 MB (on task  8 after allocating wave)
  |   Average:        1.344 MB
  | Largest tracked array allocation so far:
  |   Minimum:        0.691 MB (gradient_basis_wave on task 13)
  |   Maximum:        0.752 MB (gradient_basis_wave on task  8)
  |   Average:        0.721 MB
  Note:  These values currently only include a subset of arrays which are explicitly tracked.
  The "true" memory usage will be greater.
------------------------------------------------------------

------------------------------------------------------------
          Begin self-consistency iteration #    4

  Date     :  20220517, Time     :  120058.860
------------------------------------------------------------
  Pulay mixing of updated and previous charge densities.
  Renormalizing the density to the exact electron count on the 3D integration grid.
  | Formal number of electrons (from input files) :     120.0000000000
  | Integrated number of electrons on 3D grid     :     120.0000000000
  | Charge integration error                      :       0.0000000000
  | Normalization factor for density and gradient :       1.0000000000

  Evaluating partitioned Hartree potential by multipole expansion.
  | Original multipole sum: apparent total charge =  -0.919955E-14
  | Sum of charges compensated after spline to logarithmic grids =   0.115710E-03
  | Analytical far-field extrapolation by fixed multipoles:
  | Hartree multipole sum: apparent total charge =  -0.107246E-13
  Summing up the Hartree potential.
  Time summed over all CPUs for potential: real work        0.382 s, elapsed        0.423 s
  | RMS charge density error from multipole expansion :   0.194442E-01

  Integrating Hamiltonian matrix: batch-based integration.
  Time summed over all CPUs for integration: real work        0.662 s, elapsed        0.697 s

  Updating Kohn-Sham eigenvalues and eigenvectors using ELSI and the ELPA eigensolver.
  Starting ELPA eigensolver
  Finished transformation to standard eigenproblem
  | Time :     0.000 s
  Finished solving standard eigenproblem
  | Time :     0.003 s
  Finished back-transformation of eigenvectors
  | Time :     0.000 s

  Obtaining occupation numbers and chemical potential using ELSI.
  | Chemical potential (Fermi level):    -8.09751940 eV
  Highest occupied state (VBM) at     -9.31934643 eV
  | Occupation number:      2.00000000

  Lowest unoccupied state (CBM) at    -4.79364211 eV
  | Occupation number:      0.00000000

  Overall HOMO-LUMO gap:      4.52570433 eV.

  Total energy components:
  | Sum of eigenvalues            :        -886.52184160 Ha      -24123.48669936 eV
  | XC energy correction          :        -145.11703901 Ha       -3948.83554606 eV
  | XC potential correction       :         188.95752378 Ha        5141.79583378 eV
  | Free-atom electrostatic energy:        -781.43200021 Ha      -21263.84661824 eV
  | Hartree energy correction     :          -0.95677567 Ha         -26.03519065 eV
  | Entropy correction            :           0.00000000 Ha           0.00000000 eV
  | ---------------------------
  | Total energy                  :       -1625.07013271 Ha      -44220.40822055 eV
  | Total energy, T -> 0          :       -1625.07013271 Ha      -44220.40822055 eV  <-- do not rely on this value for anything but (periodic) metals
  | Electronic free energy        :       -1625.07013271 Ha      -44220.40822055 eV

  Derived energy quantities:
  | Kinetic energy                :        1627.69095954 Ha       44291.72454719 eV
  | Electrostatic energy          :       -3107.64405323 Ha      -84563.29722167 eV
  | Energy correction for multipole
  | error in Hartree potential    :           0.06449074 Ha           1.75488235 eV
  | Sum of eigenvalues per atom                           :       -2010.29055828 eV
  | Total energy (T->0) per atom                          :       -3685.03401838 eV  <-- do not rely on this value for anything but (periodic) metals
  | Electronic free energy per atom                       :       -3685.03401838 eV
  Evaluating new KS density.
  Integration grid: deviation in total charge (<rho> - N_e) =   1.421085E-14

  Self-consistency convergence accuracy:
  | Change of charge density      :  0.8242E-01
  | Change of sum of eigenvalues  : -0.3195E+01 eV
  | Change of total energy        :  0.6016E-01 eV


------------------------------------------------------------
  End self-consistency iteration #     4       :  max(cpu_time)    wall_clock(cpu1)
  | Time for this iteration                     :        0.084 s           0.082 s
  | Charge density update                       :        0.027 s           0.027 s
  | Density mixing                              :        0.004 s           0.002 s
  | Hartree multipole update                    :        0.001 s           0.001 s
  | Hartree multipole summation                 :        0.018 s           0.018 s
  | Integration                                 :        0.029 s           0.030 s
  | Solution of K.-S. eqns.                     :        0.004 s           0.004 s
  | Total energy evaluation                     :        0.000 s           0.000 s

  Partial memory accounting:
  | Current value for overall tracked memory usage:
  |   Minimum:        0.274 MB (on task 23)
  |   Maximum:        0.293 MB (on task  0)
  |   Average:        0.288 MB
  | Peak value for overall tracked memory usage:
  |   Minimum:        1.301 MB (on task 13 after allocating wave)
  |   Maximum:        1.398 MB (on task  8 after allocating wave)
  |   Average:        1.344 MB
  | Largest tracked array allocation so far:
  |   Minimum:        0.691 MB (gradient_basis_wave on task 13)
  |   Maximum:        0.752 MB (gradient_basis_wave on task  8)
  |   Average:        0.721 MB
  Note:  These values currently only include a subset of arrays which are explicitly tracked.
  The "true" memory usage will be greater.
------------------------------------------------------------

------------------------------------------------------------
          Begin self-consistency iteration #    5

  Date     :  20220517, Time     :  120058.948
------------------------------------------------------------
  Pulay mixing of updated and previous charge densities.
  Renormalizing the density to the exact electron count on the 3D integration grid.
  | Formal number of electrons (from input files) :     120.0000000000
  | Integrated number of electrons on 3D grid     :     120.0000000000
  | Charge integration error                      :       0.0000000000
  | Normalization factor for density and gradient :       1.0000000000

  Evaluating partitioned Hartree potential by multipole expansion.
  | Original multipole sum: apparent total charge =   0.559845E-13
  | Sum of charges compensated after spline to logarithmic grids =   0.115952E-03
  | Analytical far-field extrapolation by fixed multipoles:
  | Hartree multipole sum: apparent total charge =   0.548530E-13
  Summing up the Hartree potential.
  Time summed over all CPUs for potential: real work        0.382 s, elapsed        0.423 s
  | RMS charge density error from multipole expansion :   0.192535E-01

  Integrating Hamiltonian matrix: batch-based integration.
  Time summed over all CPUs for integration: real work        0.662 s, elapsed        0.698 s

  Updating Kohn-Sham eigenvalues and eigenvectors using ELSI and the ELPA eigensolver.
  Starting ELPA eigensolver
  Finished transformation to standard eigenproblem
  | Time :     0.001 s
  Finished solving standard eigenproblem
  | Time :     0.003 s
  Finished back-transformation of eigenvectors
  | Time :     0.000 s

  Obtaining occupation numbers and chemical potential using ELSI.
  | Chemical potential (Fermi level):    -8.05587874 eV
  Highest occupied state (VBM) at     -9.37991033 eV
  | Occupation number:      2.00000000

  Lowest unoccupied state (CBM) at    -4.72754573 eV
  | Occupation number:      0.00000000

  Overall HOMO-LUMO gap:      4.65236460 eV.

  Total energy components:
  | Sum of eigenvalues            :        -886.34051104 Ha      -24118.55244374 eV
  | XC energy correction          :        -145.11254944 Ha       -3948.71337856 eV
  | XC potential correction       :         188.95179790 Ha        5141.64002475 eV
  | Free-atom electrostatic energy:        -781.43200021 Ha      -21263.84661824 eV
  | Hartree energy correction     :          -1.13672684 Ha         -30.93191099 eV
  | Entropy correction            :           0.00000000 Ha           0.00000000 eV
[...]
   Total forces(   7)            :  0.216656E+01  0.418959E+00  0.203583E+00
  atom #    8
   Hellmann-Feynman              :  0.997959E+00  0.212167E+00  0.373890E+00
   Ionic forces                  :  0.000000E+00  0.000000E+00  0.000000E+00
   Multipole                     :  0.296346E+00  0.763067E-01  0.387830E+00
   Hartree pot. SCF incomplete   :  0.516996E-06  0.138765E-06  0.724954E-06
   Pulay + GGA                   : -0.257175E+01 -0.567637E+00 -0.158933E+01
   ----------------------------------------------------------------
   Total forces(   8)            : -0.127744E+01 -0.279162E+00 -0.827606E+00
  atom #    9
   Hellmann-Feynman              :  0.335225E+00  0.295085E+01  0.932610E+00
   Ionic forces                  :  0.000000E+00  0.000000E+00  0.000000E+00
   Multipole                     :  0.118560E+00  0.689448E+00  0.178688E+00
   Hartree pot. SCF incomplete   : -0.482114E-06  0.665593E-06  0.596076E-06
   Pulay + GGA                   : -0.859601E+00 -0.641282E+01 -0.227631E+01
   ----------------------------------------------------------------
   Total forces(   9)            : -0.405817E+00 -0.277253E+01 -0.116501E+01
  atom #   10
   Hellmann-Feynman              :  0.134338E+01 -0.251820E+01  0.112363E+01
   Ionic forces                  :  0.000000E+00  0.000000E+00  0.000000E+00
   Multipole                     :  0.350363E+00 -0.575470E+00  0.224413E+00
   Hartree pot. SCF incomplete   : -0.217856E-06 -0.747617E-06  0.655415E-06
   Pulay + GGA                   : -0.307652E+01  0.548621E+01 -0.273721E+01
   ----------------------------------------------------------------
   Total forces(  10)            : -0.138278E+01  0.239254E+01 -0.138916E+01
  atom #   11
   Hellmann-Feynman              : -0.230445E+01 -0.339209E+00  0.258795E+01
   Ionic forces                  :  0.000000E+00  0.000000E+00  0.000000E+00
   Multipole                     : -0.372134E+00 -0.526469E-01  0.545934E+00
   Hartree pot. SCF incomplete   : -0.171712E-05 -0.314884E-06  0.525875E-06
   Pulay + GGA                   :  0.468175E+01  0.679383E+00 -0.560620E+01
   ----------------------------------------------------------------
   Total forces(  11)            :  0.200517E+01  0.287527E+00 -0.247232E+01
  atom #   12
   Hellmann-Feynman              :  0.191682E+01  0.265546E+00 -0.266688E+01
   Ionic forces                  :  0.000000E+00  0.000000E+00  0.000000E+00
   Multipole                     :  0.487660E+00  0.742273E-01 -0.662629E+00
   Hartree pot. SCF incomplete   : -0.480649E-06 -0.844930E-07  0.111217E-06
   Pulay + GGA                   : -0.458843E+01 -0.665582E+00  0.602167E+01
   ----------------------------------------------------------------
   Total forces(  12)            : -0.218396E+01 -0.325809E+00  0.269217E+01


  Self-consistency convergence accuracy:
  | Change of charge density      :  0.1057E-06
  | Change of sum of eigenvalues  : -0.6004E-05 eV
  | Change of total energy        :  0.2104E-09 eV
  | Change of forces              :  0.4015E-06 eV/A

  Writing Kohn-Sham eigenvalues.

  State    Occupation    Eigenvalue [Ha]    Eigenvalue [eV]
      1       2.00000         -55.669810        -1514.85259
      2       2.00000         -55.628344        -1513.72425
      3       2.00000         -55.597523        -1512.88557
      4       2.00000         -24.326428         -661.95578
      5       2.00000         -24.323780         -661.88374
      6       2.00000         -24.322885         -661.85938
      7       2.00000         -24.251189         -659.90844
      8       2.00000         -24.235475         -659.48082
      9       2.00000         -24.206311         -658.68723
     10       2.00000         -24.204271         -658.63172
     11       2.00000         -24.196735         -658.42666
     12       2.00000         -24.195938         -658.40496
     13       2.00000          -4.122507         -112.17913
     14       2.00000          -4.080106         -111.02534
     15       2.00000          -4.051547         -110.24819
     16       2.00000          -2.715504          -73.89264
     17       2.00000          -2.714613          -73.86839
     18       2.00000          -2.712014          -73.79766
     19       2.00000          -2.674256          -72.77020
     20       2.00000          -2.672194          -72.71409
     21       2.00000          -2.668382          -72.61037
     22       2.00000          -2.646236          -72.00775
     23       2.00000          -2.642480          -71.90553
     24       2.00000          -2.640554          -71.85314
     25       2.00000          -1.202084          -32.71036
     26       2.00000          -1.195483          -32.53074
     27       2.00000          -1.183313          -32.19958
     28       2.00000          -1.105679          -30.08705
     29       2.00000          -1.082449          -29.45494
     30       2.00000          -1.054934          -28.70621
     31       2.00000          -1.050441          -28.58397
     32       2.00000          -1.046375          -28.47330
     33       2.00000          -1.042530          -28.36867
     34       2.00000          -0.582245          -15.84370
     35       2.00000          -0.564566          -15.36262
     36       2.00000          -0.553476          -15.06084
     37       2.00000          -0.534887          -14.55503
     38       2.00000          -0.524941          -14.28436
     39       2.00000          -0.500045          -13.60693
     40       2.00000          -0.496488          -13.51012
     41       2.00000          -0.490313          -13.34209
     42       2.00000          -0.476567          -12.96805
     43       2.00000          -0.467309          -12.71612
     44       2.00000          -0.442195          -12.03274
     45       2.00000          -0.427425          -11.63082
     46       2.00000          -0.416449          -11.33214
     47       2.00000          -0.410714          -11.17610
     48       2.00000          -0.410132          -11.16025
     49       2.00000          -0.399413          -10.86859
     50       2.00000          -0.389496          -10.59874
     51       2.00000          -0.387443          -10.54285
     52       2.00000          -0.386811          -10.52566
     53       2.00000          -0.363831           -9.90034
     54       2.00000          -0.362799           -9.87225
     55       2.00000          -0.356928           -9.71249
     56       2.00000          -0.356212           -9.69303
     57       2.00000          -0.354417           -9.64418
     58       2.00000          -0.348080           -9.47175
     59       2.00000          -0.345990           -9.41487
     60       2.00000          -0.343808           -9.35548
     61       0.00000          -0.173733           -4.72750
     62       0.00000          -0.102926           -2.80075
     63       0.00000          -0.090044           -2.45021
     64       0.00000          -0.067908           -1.84787
     65       0.00000          -0.038089           -1.03645
     66       0.00000          -0.027916           -0.75963
     67       0.00000          -0.010132           -0.27572
     68       0.00000           0.016914            0.46024
     69       0.00000           0.029841            0.81202
     70       0.00000           0.038216            1.03991
     71       0.00000           0.049644            1.35087
     72       0.00000           0.080028            2.17768
     73       0.00000           0.126864            3.45215
     74       0.00000           0.148413            4.03852
     75       0.00000           0.150455            4.09409
     76       0.00000           0.160347            4.36327
     77       0.00000           0.175923            4.78711
     78       0.00000           0.180701            4.91712
     79       0.00000           0.185646            5.05169
     80       0.00000           0.196550            5.34840
     81       0.00000           0.199399            5.42592
     82       0.00000           0.205960            5.60445
     83       0.00000           0.212069            5.77070
     84       0.00000           0.219465            5.97194
     85       0.00000           0.223702            6.08723
     86       0.00000           0.226195            6.15509
     87       0.00000           0.246205            6.69958
     88       0.00000           0.257435            7.00515
     89       0.00000           0.268904            7.31724
     90       0.00000           0.286201            7.78793
     91       0.00000           0.300151            8.16753
     92       0.00000           0.316561            8.61405
     93       0.00000           0.327562            8.91342
     94       0.00000           0.343954            9.35946
     95       0.00000           0.358137            9.74541
     96       0.00000           0.360623            9.81305

  Highest occupied state (VBM) at     -9.35548400 eV
  | Occupation number:      2.00000000

  Lowest unoccupied state (CBM) at    -4.72750245 eV
  | Occupation number:      0.00000000

  Overall HOMO-LUMO gap:      4.62798155 eV.
  | Chemical Potential                          :    -8.05412888 eV

  Self-consistency cycle converged.


------------------------------------------------------------
  End self-consistency iteration #    14       :  max(cpu_time)    wall_clock(cpu1)
  | Time for this iteration                     :        0.268 s           0.265 s
  | Charge density & force component update     :        0.144 s           0.145 s
  | Density mixing                              :        0.005 s           0.002 s
  | Hartree multipole update                    :        0.001 s           0.001 s
  | Hartree multipole summation                 :        0.051 s           0.051 s
  | Hartree pot. SCF incomplete forces          :        0.033 s           0.032 s
  | Integration                                 :        0.029 s           0.029 s
  | Solution of K.-S. eqns.                     :        0.004 s           0.004 s
  | Total energy evaluation                     :        0.000 s           0.000 s

  Partial memory accounting:
  | Current value for overall tracked memory usage:
  |   Minimum:        0.274 MB (on task 23)
  |   Maximum:        0.293 MB (on task  0)
  |   Average:        0.289 MB
  | Peak value for overall tracked memory usage:
  |   Minimum:        2.858 MB (on task 13 after allocating hessian_basis_wave)
  |   Maximum:        3.062 MB (on task  8 after allocating hessian_basis_wave)
  |   Average:        2.955 MB
  | Largest tracked array allocation so far:
  |   Minimum:        1.381 MB (hessian_basis_wave on task 13)
  |   Maximum:        1.504 MB (hessian_basis_wave on task  8)
  |   Average:        1.442 MB
  Note:  These values currently only include a subset of arrays which are explicitly tracked.
  The "true" memory usage will be greater.
------------------------------------------------------------
  Removing unitary transformations (pure translations, rotations) from forces on atoms.
  Atomic forces before filtering:
  | Net force on center of mass :  -0.234672E-02 -0.972339E-03 -0.220347E-02 eV/A
  | Net torque on center of mass:  -0.247756E-03 -0.103089E-01  0.292559E-02 eV
  Atomic forces after filtering:
  | Net force on center of mass :  -0.356812E-15  0.312211E-15  0.214087E-14 eV/A
  | Net torque on center of mass:   0.944085E-16  0.755268E-15  0.151054E-14 eV

  Energy and forces in a compact form:
  | Total energy uncorrected      :         -0.442204040860090E+05 eV
  | Total energy corrected        :         -0.442204040860090E+05 eV  <-- do not rely on this value for anything but (periodic) metals
  | Electronic free energy        :         -0.442204040860090E+05 eV
  Total atomic forces (unitary forces cleaned) [eV/Ang]:
  |    1          0.179121417752194E+01          0.329227113483810E+00         -0.203719577845125E+01
  |    2          0.438003543110777E+00          0.104394155302790E+00          0.211304308855527E+01
  |    3         -0.311751993876198E+01         -0.604771080086922E+00         -0.221615393644105E+00
  |    4          0.102924766660049E+01          0.322141539264078E+00          0.301816993820917E+01
  |    5          0.628657706596848E-01          0.218091609741736E+01         -0.415270428931015E-01
  |    6          0.872518973034880E+00         -0.205372704648161E+01          0.126770998201794E+00
  |    7          0.216692817057173E+01          0.419077924019040E+00          0.203871183419827E+00
  |    8         -0.127715599316841E+01         -0.279195143895633E+00         -0.827691294097518E+00
  |    9         -0.405121468103235E+00         -0.277251823553352E+01         -0.116496428584618E+01
  |   10         -0.138224807559060E+01          0.239250945957197E+01         -0.138921312646249E+01
  |   11          0.200536075611937E+01          0.287782493448620E+00         -0.247171010665755E+01
  |   12         -0.218409358199464E+01         -0.325837276509989E+00          0.269206181966613E+01

  ------------------------------------ 
  Start decomposition of the XC Energy 
  ------------------------------------ 
  X and C from original XC functional choice 
  Hartree-Fock Energy :          0.000000000 Ha              0.000000000 eV
  X Energy            :       -140.176020188 Ha          -3814.383583016 eV
  C Energy            :         -4.940669029 Ha           -134.442444639 eV
  Total XC Energy     :       -145.116689217 Ha          -3948.826027656 eV
  ------------------------------------ 
  LDA X and C from self-consistent density 
  X Energy LDA        :       -132.748944062 Ha          -3612.282558841 eV
  C Energy LDA        :         -8.823029489 Ha           -240.086847868 eV
  ------------------------------------ 
  End decomposition of the XC Energy 
  ------------------------------------ 

------------------------------------------------------------

------------------------------------------------------------------------------
  Final output of selected total energy values:

  The following output summarizes some interesting total energy values
  at the end of a run (AFTER all relaxation, molecular dynamics, etc.).

  | Total energy of the DFT / Hartree-Fock s.c.f. calculation      :         -44220.404086009 eV
  | Final zero-broadening corrected energy (caution - metals only) :         -44220.404086009 eV
  | For reference only, the value of 1 Hartree used in FHI-aims is :             27.211384500 eV

  Before relying on these values, please be sure to understand exactly which
  total energy value is referred to by a given number. Different objects may
  all carry the same name 'total energy'. Definitions:

  Total energy of the DFT / Hartree-Fock s.c.f. calculation:
  | Note that this energy does not include ANY quantities calculated after the
  | s.c.f. cycle, in particular not ANY RPA, MP2, etc. many-body perturbation terms.

  Final zero-broadening corrected energy:
  | For metallic systems only, a broadening of the occupation numbers at the Fermi
  | level can be extrapolated back to zero broadening by an electron-gas inspired
  | formula. For all systems that are not real metals, this value can be
  | meaningless and should be avoided.

------------------------------------------------------------------------------
  Methods described in the following list of references were used in this FHI-aims run.
  If you publish the results, please make sure to cite these reference if they apply.
  FHI-aims is an academic code, and for our developers (often, Ph.D. students
  and postdocs), scientific credit in the community is essential.
  Thank you for helping us!

  For any use of FHI-aims, please cite:

    Volker Blum, Ralf Gehrke, Felix Hanke, Paula Havu, Ville Havu,
    Xinguo Ren, Karsten Reuter, and Matthias Scheffler
    'Ab initio molecular simulations with numeric atom-centered orbitals'
    Computer Physics Communications 180, 2175-2196 (2009)
    http://dx.doi.org/10.1016/j.cpc.2009.06.022


  The ELSI infrastructure was used in your run to solve the Kohn-Sham electronic structure.
  Please check out http://elsi-interchange.org to learn more.
  If scalability is important for your project, please acknowledge ELSI by citing:

    V. W-z. Yu, F. Corsetti, A. Garcia, W. P. Huhn, M. Jacquelin, W. Jia,
    B. Lange, L. Lin, J. Lu, W. Mi, A. Seifitokaldani, A. Vazquez-Mayagoitia,
    C. Yang, H. Yang, and V. Blum
    'ELSI: A unified software interface for Kohn-Sham electronic structure solvers'
    Computer Physics Communications 222, 267-285 (2018).
    http://dx.doi.org/10.1016/j.cpc.2017.09.007


  For the real-space grid partitioning and parallelization used in this calculation, please cite:

    Ville Havu, Volker Blum, Paula Havu, and Matthias Scheffler,
    'Efficient O(N) integration for all-electron electronic structure calculation'
    'using numerically tabulated basis functions'
    Journal of Computational Physics 228, 8367-8379 (2009).
    http://dx.doi.org/10.1016/j.jcp.2009.08.008

  Of course, there are many other important community references, e.g., those cited in the
  above references. Our list is limited to references that describe implementations in the
  FHI-aims code. The reason is purely practical (length of this list) - please credit others as well.

------------------------------------------------------------
          Leaving FHI-aims.
          Date     :  20220517, Time     :  120100.300

          Computational steps:
          | Number of self-consistency cycles          :           14
          | Number of SCF (re)initializations          :            1

          Detailed time accounting                     :  max(cpu_time)    wall_clock(cpu1)
          | Total time                                  :        2.005 s           2.070 s
          | Preparation time                            :        0.184 s           0.184 s
          | Boundary condition initalization            :        0.000 s           0.000 s
          | Grid partitioning                           :        0.035 s           0.034 s
          | Preloading free-atom quantities on grid     :        0.015 s           0.015 s
          | Free-atom superposition energy              :        0.005 s           0.005 s
          | Total time for integrations                 :        0.456 s           0.457 s
          | Total time for solution of K.-S. equations  :        0.121 s           0.120 s
          | Total time for density & force components   :        0.663 s           0.665 s
          | Total time for mixing                       :        0.075 s           0.036 s
          | Total time for Hartree multipole update     :        0.018 s           0.015 s
          | Total time for Hartree multipole sum        :        0.316 s           0.318 s
          | Total time for total energy evaluation      :        0.002 s           0.001 s
          | Total time NSC force correction             :        0.065 s           0.064 s
          | Total time for scaled ZORA corrections      :        0.000 s           0.000 s

          Partial memory accounting:
          | Residual value for overall tracked memory usage across tasks:     0.000000 MB (should be 0.000000 MB)
          | Peak values for overall tracked memory usage:
          |   Minimum:        2.858 MB (on task 13 after allocating hessian_basis_wave)
          |   Maximum:        3.062 MB (on task  8 after allocating hessian_basis_wave)
          |   Average:        2.955 MB
          | Largest tracked array allocation:
          |   Minimum:        1.381 MB (hessian_basis_wave on task 13)
          |   Maximum:        1.504 MB (hessian_basis_wave on task  8)
          |   Average:        1.442 MB
          Note:  These values currently only include a subset of arrays which are explicitly tracked.
          The "true" memory usage will be greater.

          Have a nice day.
------------------------------------------------------------
