********************************************************************************
*                       GENERAL UTILITY LATTICE PROGRAM                        *
*                                 Julian Gale                                  *
*                       Curtin Institute for Computation                       *
*                           Department of Chemistry                            *
*                    Curtin University, Western Australia                      *
********************************************************************************
* Version = 5.1.1 * Last modified =  11th January 2019                         *
********************************************************************************
*  single       - perform a single point run                                   *
*  phonon       - calculate phonons for final geometry                         *
*  eigenvectors - output phonon eigenvectors                                   *
********************************************************************************

  Job Started  at 10:34.37 17th May        2022                               

  Number of CPUs =     1

  Host name      = login04                                 


  Total number of configurations input =      1

********************************************************************************
*  Input for Configuration =   1                                               *
********************************************************************************

  Formula = Al3F9                                                       

  Number of irreducible atoms/shells =      21


  Total number atoms/shells =      21

  Dimensionality = 0               :  Cluster


  Charge on cluster =  -0.000000


  Initial cluster dipoles : x =      0.099572 e.Angs
                            y =     -0.683891 e.Angs
                            z =     -0.039587 e.Angs

  Temperature of configuration =  0.000     K 

  Symmetry number =      1

  Cartesian coordinates of cluster :

--------------------------------------------------------------------------------
   No.  Atomic       x           y          z         Charge      Occupancy
        Label      (Angs)      (Angs)     (Angs)        (e)         (Frac)  
--------------------------------------------------------------------------------
      1 Al    c     -1.7042      2.5587     -1.2267     3.00000    1.000000    
      2 Al    c     -0.5663      0.0024     -2.3827     3.00000    1.000000    
      3 Al    c     -2.1621     -0.3404     -0.4839     3.00000    1.000000    
      4 F     c     -0.7298      3.6916     -0.1927     0.59000    1.000000    
      5 F     c     -3.0586      3.1677     -2.2707     0.59000    1.000000    
      6 F     c     -1.3789     -1.6754     -1.7184     0.59000    1.000000    
      7 F     c     -2.4820      1.4487      0.0861     0.59000    1.000000    
      8 F     c     -3.1737     -1.3057      0.6656     0.59000    1.000000    
      9 F     c      0.5514     -0.5126     -3.7091     0.59000    1.000000    
     10 F     c     -0.3726      1.8978     -2.3911     0.59000    1.000000    
     11 F     c     -2.4847      0.4681     -2.2714     0.59000    1.000000    
     12 F     c     -0.2683      0.1660     -0.4389     0.59000    1.000000    
     13 F     s     -0.7298      3.6916     -0.1927    -1.59000    1.000000    
     14 F     s     -3.0586      3.1677     -2.2707    -1.59000    1.000000    
     15 F     s     -1.3789     -1.6754     -1.7184    -1.59000    1.000000    
     16 F     s     -2.4820      1.4487      0.0861    -1.59000    1.000000    
     17 F     s     -3.1737     -1.3057      0.6656    -1.59000    1.000000    
     18 F     s      0.5514     -0.5126     -3.7091    -1.59000    1.000000    
     19 F     s     -0.3726      1.8978     -2.3911    -1.59000    1.000000    
     20 F     s     -2.4847      0.4681     -2.2714    -1.59000    1.000000    
     21 F     s     -0.2683      0.1660     -0.4389    -1.59000    1.000000    
--------------------------------------------------------------------------------


  Brillouin zone sampling points :

--------------------------------------------------------------------------------
  Point number          x          y          z            Weight
--------------------------------------------------------------------------------
        1           0.000000   0.000000   0.000000     1.00000000
--------------------------------------------------------------------------------


********************************************************************************
*  General input information                                                   *
********************************************************************************

  Species output for all configurations : 

--------------------------------------------------------------------------------
  Species    Type    Atomic    Atomic    Charge       Radii (Angs)     Library
                     Number     Mass       (e)     Cova   Ionic  VDW   Symbol
--------------------------------------------------------------------------------
    Al       Core       13      26.98   3.000000   1.350  0.000  2.050          
    F        Core        9      19.00   0.590000   0.710  0.000  1.300          
    F        Shell       9       0.00  -1.590000   0.710  0.000  1.300          
--------------------------------------------------------------------------------


  Accuracy factor for short range sums = 12.000

  Time limit = Infinity

  Maximum range for interatomic potentials =    100000.000000 Angstroms

  General interatomic potentials :

--------------------------------------------------------------------------------
Atom  Types   Potential      Parameter       Value         Units   Cutoffs(Ang)
  1     2                                                            Min /  Max 
--------------------------------------------------------------------------------
Al   c F    s Buckingham    Buckingham A     3760.0008    eV        0.000 10.000
                            Buckingham rho  0.22200000    Ang       
                            Buckingham C     0.0000000    eV*Ang^6  
--------------------------------------------------------------------------------
F    s F    s Buck 4 range  Buck4 A          1127.7000    eV        0.000 12.000
                            Buck4 rho       0.27530000    Ang       
                            Buck4 C          15.830000    eV*Ang^6  
                            Buck4 minimum    2.7900000    Ang       
--------------------------------------------------------------------------------
F    c F    s Spring (c-s)  Spring k 2       20.770000    eV*Ang^-2 0.000  0.800
                            Spring k 4       0.0000000    eV*Ang^-4 
--------------------------------------------------------------------------------

********************************************************************************
*  Output for configuration   1                                                *
********************************************************************************


  Components of energy : 

--------------------------------------------------------------------------------
  Interatomic potentials     =          10.15051097 eV    
  Monopole - monopole (real) =        -177.85957289 eV    
--------------------------------------------------------------------------------
  Total lattice energy       =        -167.70906192 eV    
--------------------------------------------------------------------------------
  Total lattice energy       =          -16181.3608 kJ/mol
--------------------------------------------------------------------------------

  Born effective charge tensors : 

-------------------------------------------------------------------------------
  Atom             x           y             z
-------------------------------------------------------------------------------
    1 Al    x       2.0427      0.0616      0.0544
            y       0.0542      2.2154      0.0886
            z       0.0531      0.0950      2.0526
-------------------------------------------------------------------------------
    2 Al    x       2.0649     -0.0144     -0.2707
            y       0.0835      2.5235     -0.0932
            z      -0.2784      0.0298      2.1517
-------------------------------------------------------------------------------
    3 Al    x       2.0679      0.0068     -0.2951
            y      -0.1000      2.4896      0.1143
            z      -0.2899     -0.0011      2.1797
-------------------------------------------------------------------------------
    4 F     x      -0.6503     -0.2018     -0.1668
            y      -0.2609     -0.9121     -0.2971
            z      -0.1776     -0.2469     -0.6930
-------------------------------------------------------------------------------
    5 F     x      -0.8343      0.2166     -0.2502
            y       0.2776     -0.7135      0.1965
            z      -0.2390      0.1446     -0.6719
-------------------------------------------------------------------------------
    6 F     x      -0.5432     -0.0482      0.2022
            y      -0.0321     -1.2230     -0.1045
            z       0.2042     -0.1190     -0.6434
-------------------------------------------------------------------------------
    7 F     x      -0.4341     -0.0162      0.1901
            y      -0.0313     -0.9822      0.0471
            z       0.1852      0.0343     -0.6018
-------------------------------------------------------------------------------
    8 F     x      -0.7252     -0.2180      0.2690
            y      -0.2357     -0.7262      0.2748
            z       0.2709      0.2612     -0.7990
-------------------------------------------------------------------------------
    9 F     x      -0.7825      0.1388      0.3461
            y       0.1505     -0.5654     -0.1727
            z       0.3456     -0.1542     -0.8979
-------------------------------------------------------------------------------
   10 F     x      -0.5582      0.0597      0.2252
            y       0.0677     -0.9398     -0.0994
            z       0.2290     -0.0797     -0.5249
-------------------------------------------------------------------------------
   11 F     x      -0.7874      0.0590     -0.1244
            y       0.0861     -0.6563      0.0689
            z      -0.1199      0.0459     -0.7275
-------------------------------------------------------------------------------
   12 F     x      -0.8604     -0.0440     -0.1798
            y      -0.0596     -0.5102     -0.0234
            z      -0.1830     -0.0099     -0.8246
-------------------------------------------------------------------------------




  Moment of inertia tensor (10^-46 x kgm^2): 

-------------------------------------------------------------------------------
                x           y           z           Principal axis system
-------------------------------------------------------------------------------
       x        173.23        4.03       27.46          113.192506
       y          4.03      113.78       -1.65          141.742122
       z         27.46       -1.65      164.75          196.822373
-------------------------------------------------------------------------------
  Centre of mass (Ang) =    -1.485030     0.791819    -1.361483
-------------------------------------------------------------------------------


  Vibrational Frequency Calculation : 

--------------------------------------------------------------------------------

  Frequencies (cm-1) and Eigenvectors : 

  Frequency    -348.0302 -313.2442 -171.8625    0.0000    0.0000    0.0000
  IR Intensity    0.0004    0.0041    0.0039    0.0000    0.0000    0.0000
     in X         0.0002    0.0017    0.0018    0.0000    0.0000    0.0000
     in Y         0.0000    0.0001    0.0010    0.0000    0.0000    0.0000
     in Z         0.0002    0.0024    0.0011    0.0000    0.0000    0.0000
  Raman Intsty    0.0023    0.0004    0.4290    0.0000    0.0000    0.0000

     1 x      -0.082313 -0.264875  0.455324  0.037403  0.038236  0.322844
     1 y      -0.017858 -0.056068  0.121442 -0.314377  0.087028  0.026115
     1 z       0.095921  0.309131  0.407899 -0.082806 -0.313134  0.046680
     2 x       0.542899 -0.048620 -0.278412  0.037403  0.038236  0.322844
     2 y       0.163878  0.584124 -0.037546 -0.314377  0.087028  0.026115
     2 z       0.401794 -0.237297 -0.190358 -0.082806 -0.313134  0.046680
     3 x      -0.453122  0.340981 -0.223818  0.037403  0.038236  0.322844
     3 y      -0.141655 -0.522981 -0.030619 -0.314377  0.087028  0.026115
     3 z      -0.502382 -0.105032 -0.251755 -0.082806 -0.313134  0.046680
     4 x      -0.001222 -0.011280  0.246114  0.031388  0.032087  0.270924
     4 y      -0.000694 -0.002587  0.163387 -0.263820  0.073032  0.021916
     4 z       0.001361  0.012189  0.238487 -0.069490 -0.262777  0.039173
     5 x      -0.004237 -0.019169  0.262005  0.031388  0.032087  0.270924
     5 y      -0.001555 -0.003388 -0.110401 -0.263820  0.073032  0.021916
     5 z       0.004585  0.022227  0.201910 -0.069490 -0.262777  0.039173
     6 x      -0.029044 -0.063886 -0.024655  0.031388  0.032087  0.270924
     6 y      -0.010776 -0.010573 -0.126427 -0.263820  0.073032  0.021916
     6 z       0.032955  0.076954 -0.043682 -0.069490 -0.262777  0.039173
     7 x       0.026884 -0.001966 -0.005238  0.031388  0.032087  0.270924
     7 y      -0.019400 -0.068448  0.054448 -0.263820  0.073032  0.021916
     7 z       0.010546 -0.024016 -0.037612 -0.069490 -0.262777  0.039173
     8 x      -0.061841  0.031191 -0.087165  0.031388  0.032087  0.270924
     8 y      -0.005352 -0.041276  0.023511 -0.263820  0.073032  0.021916
     8 z      -0.051675  0.014365 -0.095077 -0.069490 -0.262777  0.039173
     9 x       0.061159 -0.026685 -0.112796  0.031388  0.032087  0.270924
     9 y       0.005181  0.041585  0.020229 -0.263820  0.073032  0.021916
     9 z       0.053186 -0.019740 -0.065950 -0.069490 -0.262777  0.039173
    10 x      -0.015110  0.011431 -0.046618  0.031388  0.032087  0.270924
    10 y       0.026482  0.066507  0.046915 -0.263820  0.073032  0.021916
    10 z      -0.023433  0.012894  0.011684 -0.069490 -0.262777  0.039173
    11 x      -0.015236  0.032285 -0.047841  0.031388  0.032087  0.270924
    11 y      -0.006441  0.008165 -0.142167 -0.263820  0.073032  0.021916
    11 z       0.031118 -0.044871 -0.062662 -0.069490 -0.262777  0.039173
    12 x       0.029750  0.015327 -0.127910  0.031388  0.032087  0.270924
    12 y       0.007353  0.003968  0.007018 -0.263820  0.073032  0.021916
    12 z      -0.053082 -0.010441 -0.106327 -0.069490 -0.262777  0.039173


  Frequency      58.0144  134.2811  138.7835  146.5039  148.7008  156.2283
  IR Intensity    0.0030    0.0108    0.0021    0.0013    0.0002    0.0000
     in X         0.0016    0.0001    0.0000    0.0001    0.0001    0.0000
     in Y         0.0000    0.0099    0.0020    0.0012    0.0001    0.0000
     in Z         0.0014    0.0008    0.0001    0.0000    0.0000    0.0000
  Raman Intsty    0.0001    0.7239    0.2078    0.9070    0.0242    0.0172

     1 x       0.269693  0.003291  0.031128  0.007871 -0.001976 -0.055570
     1 y       0.058191  0.107345 -0.102653  0.097928 -0.021129 -0.046392
     1 z      -0.317195  0.020812  0.009074  0.026680 -0.005349  0.078159
     2 x      -0.149459 -0.025492  0.007876  0.002956  0.006718  0.038820
     2 y       0.131758 -0.080877  0.027469 -0.051164  0.015237  0.032233
     2 z       0.184832 -0.005159 -0.029085  0.025911  0.003615 -0.036354
     3 x      -0.121649 -0.006054 -0.035446  0.031177 -0.014293  0.039222
     3 y      -0.193631 -0.075072  0.022086 -0.040237  0.007628  0.014374
     3 z       0.147757 -0.050257  0.011893 -0.018413  0.002582 -0.019200
     4 x       0.098477 -0.154259  0.311375 -0.125854 -0.248891  0.171504
     4 y       0.019998  0.337516 -0.553933  0.227806 -0.097643  0.037394
     4 z      -0.112481 -0.068466  0.174787  0.011354  0.309851 -0.245351
     5 x       0.165604  0.061388  0.124915  0.049799  0.272239  0.176785
     5 y       0.039709  0.310137  0.366831  0.076613  0.003174 -0.118278
     5 z      -0.192709  0.086561  0.162476 -0.012289 -0.351709 -0.263961
     6 x      -0.329321 -0.057575 -0.075278  0.257717  0.037976  0.179988
     6 y      -0.070325  0.269919  0.321918  0.073236 -0.015411  0.047180
     6 z       0.382605 -0.001264 -0.009874  0.207788 -0.087972  0.216272
     7 x       0.087868  0.288435 -0.176393 -0.312425 -0.370698 -0.124131
     7 y      -0.156213 -0.099483 -0.090993 -0.014336 -0.008716  0.126022
     7 z      -0.183469 -0.051878 -0.026367 -0.319588 -0.175866 -0.010265
     8 x      -0.143231 -0.093124 -0.027124  0.279052 -0.155700 -0.344984
     8 y      -0.121536 -0.172700 -0.167110 -0.168724 -0.088211  0.441452
     8 z       0.201628 -0.205934 -0.105179  0.086559 -0.206229  0.001728
     9 x      -0.180613 -0.143461 -0.050450  0.246138  0.159007 -0.152693
     9 y       0.048709 -0.194820 -0.181510 -0.155580  0.220561 -0.487564
     9 z       0.201306 -0.062491 -0.027367  0.272975  0.047095 -0.011772
    10 x       0.128857  0.055193 -0.011493 -0.262745  0.325530  0.092009
    10 y       0.204299 -0.166094 -0.066780 -0.029206 -0.003184 -0.147384
    10 z      -0.078557  0.307970 -0.154182 -0.138604  0.383832  0.048067
    11 x       0.100762 -0.206420 -0.118535 -0.172943  0.114571  0.007261
    11 y       0.023515  0.041195  0.233032 -0.271939  0.042306 -0.034223
    11 z      -0.134294 -0.187724 -0.075414 -0.232858 -0.048383  0.058193
    12 x       0.073281  0.283493  0.018744 -0.008794 -0.122651 -0.032518
    12 y       0.016232 -0.267751  0.201819  0.254353 -0.054946  0.135144
    12 z      -0.102374  0.224463  0.070794  0.083935  0.128371  0.180151


  Frequency     157.5356  161.9786  164.3098  166.0621  168.8709  190.5254
  IR Intensity    0.0001    0.0001    0.0001    0.0067    0.0008    0.0070
     in X         0.0000    0.0000    0.0000    0.0032    0.0004    0.0038
     in Y         0.0001    0.0000    0.0001    0.0001    0.0000    0.0000
     in Z         0.0000    0.0001    0.0000    0.0035    0.0004    0.0032
  Raman Intsty    0.0625    0.0118    0.3865    0.0001    0.0001    0.1091

     1 x      -0.055241 -0.025596 -0.032283  0.046325 -0.026038  0.067144
     1 y       0.046824  0.000297 -0.010263  0.007436 -0.005296 -0.050001
     1 z       0.038867  0.042726 -0.020628 -0.052764  0.027835  0.044105
     2 x      -0.006836  0.038146  0.038362  0.044425 -0.080322 -0.067358
     2 y      -0.022624 -0.011045 -0.006409 -0.029589  0.018085  0.062279
     2 z      -0.041352  0.020408 -0.005203 -0.073345 -0.032317 -0.055209
     3 x       0.013657 -0.020277 -0.019661  0.064423  0.047964 -0.084788
     3 y      -0.019796  0.011459 -0.006189  0.053138 -0.025000  0.062939
     3 z      -0.049746 -0.043990  0.013053 -0.041150  0.067387 -0.054351
     4 x       0.112407 -0.289948  0.067683 -0.398347 -0.101836  0.030494
     4 y       0.002916  0.003831 -0.241899 -0.082564 -0.031104 -0.038395
     4 z      -0.041390  0.291455  0.121541  0.464815  0.127393  0.032481
     5 x       0.121521  0.326493  0.061505 -0.204157  0.247603 -0.057414
     5 y       0.283885  0.081102  0.074013 -0.058160  0.055535 -0.646015
     5 z      -0.053644 -0.375841 -0.040937  0.234209 -0.291022 -0.161205
     6 x      -0.396242 -0.001559  0.132692 -0.024419  0.008759 -0.254777
     6 y      -0.110698  0.001574  0.056682 -0.009344  0.004613  0.458937
     6 z      -0.339734 -0.028469  0.119050  0.074214 -0.008185 -0.130126
     7 x      -0.040723  0.099699  0.077866  0.110849  0.344404  0.107916
     7 y       0.086896  0.034198 -0.095046 -0.103234  0.005433 -0.047893
     7 z      -0.070031  0.136108 -0.158191 -0.118690  0.268113  0.031952
     8 x       0.160521  0.392736 -0.118497 -0.176661 -0.329139  0.148791
     8 y       0.293518 -0.041292  0.394347  0.318418 -0.035532 -0.007707
     8 z       0.320516  0.265168  0.296806 -0.004749 -0.278135  0.133600
     9 x       0.289767 -0.390489  0.011477  0.049258  0.325919  0.137696
     9 y      -0.228145 -0.181352  0.451648 -0.334714  0.050568 -0.003371
     9 z       0.296272 -0.270853 -0.235193  0.070991  0.291943  0.108279
    10 x       0.012103 -0.092441 -0.189348  0.088436 -0.328117  0.045697
    10 y      -0.067397  0.006795 -0.137568  0.145217 -0.003911 -0.055999
    10 z       0.085100 -0.109131  0.013813 -0.097456 -0.296127  0.068852
    11 x      -0.064297 -0.049675 -0.225553  0.196936 -0.130010 -0.190337
    11 y       0.036095  0.034139 -0.274160  0.040138 -0.032674  0.119889
    11 z      -0.041235  0.143506 -0.208095 -0.225677  0.140347 -0.147411
    12 x      -0.137358  0.014394  0.198358  0.173195  0.032004  0.133226
    12 y      -0.302316  0.060157 -0.200776  0.047321  0.001623  0.130922
    12 z      -0.093613 -0.074756  0.106433 -0.198345 -0.029288  0.141576


  Frequency     212.8020  232.9269  262.3349  263.6741  284.0580  300.4092
  IR Intensity    0.0210    0.0021    0.0036    0.0397    0.0008    0.1397
     in X         0.0004    0.0003    0.0031    0.0217    0.0001    0.0000
     in Y         0.0204    0.0014    0.0000    0.0000    0.0000    0.1356
     in Z         0.0001    0.0003    0.0005    0.0179    0.0006    0.0041
  Raman Intsty    0.0952    0.0867    0.0209    0.2160    0.0121    0.0016

     1 x      -0.140323 -0.069756 -0.075610 -0.020072 -0.037847 -0.004768
     1 y       0.277208 -0.062723 -0.005071 -0.037083 -0.017424  0.023212
     1 z      -0.066804 -0.068476  0.088092  0.022495  0.050102  0.008201
     2 x      -0.055779 -0.072403  0.125839 -0.176153 -0.023518 -0.060501
     2 y       0.070169 -0.030143 -0.121580 -0.006013 -0.040561 -0.304730
     2 z       0.093609 -0.079764 -0.039144 -0.217544 -0.029956  0.019189
     3 x       0.068781 -0.084292  0.124863 -0.204925  0.037427  0.059128
     3 y       0.095739 -0.032827  0.133365  0.064102  0.052082 -0.270655
     3 z      -0.052196 -0.063518 -0.010774 -0.177317  0.028571 -0.125655
     4 x       0.326554 -0.058161 -0.003054 -0.054288  0.053961  0.174343
     4 y      -0.250474 -0.124043  0.014317 -0.064810  0.012697  0.133157
     4 z       0.227569 -0.073951  0.036761 -0.045823 -0.077452  0.164147
     5 x      -0.266733 -0.030505  0.020275 -0.035445  0.042102 -0.213628
     5 y      -0.078425  0.166968  0.006978 -0.007828 -0.001787  0.063904
     5 z      -0.243398  0.002465 -0.001191 -0.037151 -0.026316 -0.177207
     6 x       0.102877  0.093548 -0.590674  0.264888 -0.018100 -0.003264
     6 y      -0.108642 -0.078109 -0.110182 -0.005475  0.023482 -0.137710
     6 z       0.064127  0.055354  0.448095  0.513822  0.033566 -0.025320
     7 x       0.174669  0.369140 -0.040617 -0.001717 -0.259616  0.149206
     7 y       0.261225 -0.035377  0.250818  0.052206 -0.168976 -0.142978
     7 z      -0.118353  0.226645  0.038399  0.095145  0.026823 -0.288636
     8 x       0.172747  0.036014  0.153566  0.165415 -0.022368 -0.035128
     8 y      -0.066081  0.003808  0.035271 -0.019108  0.033346  0.083099
     8 z      -0.239738  0.092640 -0.273462  0.069913 -0.050481  0.064592
     9 x      -0.191201  0.094957  0.150705  0.214864  0.045385  0.043838
     9 y      -0.145710  0.015128  0.060175  0.000913 -0.020206  0.096420
     9 z       0.184779  0.025127 -0.237433  0.019694  0.016524 -0.028983
    10 x      -0.125901  0.288689 -0.031207  0.075458 -0.006968 -0.252189
    10 y       0.195580 -0.058343 -0.250498 -0.088205  0.096720 -0.203044
    10 z       0.251926  0.325194 -0.001473 -0.011208  0.284736  0.178353
    11 x      -0.063081 -0.209876  0.078781 -0.073539 -0.292108  0.127133
    11 y      -0.151767 -0.210943 -0.133860  0.473714 -0.060407  0.426726
    11 z      -0.075941 -0.216976 -0.061158 -0.016868  0.320594  0.176535
    12 x       0.021789 -0.313960  0.053579 -0.077610  0.486237  0.017006
    12 y      -0.183738  0.470692  0.118978 -0.366439  0.092167  0.338417
    12 z      -0.020713 -0.184160  0.005973 -0.143799 -0.586049  0.053615


  Frequency     302.3793  305.3121  339.4683  359.0473  360.8308  369.7117
  IR Intensity    0.0136    0.0238    0.1690    0.1850    0.0060    0.0810
     in X         0.0033    0.0002    0.0923    0.0001    0.0011    0.0023
     in Y         0.0000    0.0228    0.0106    0.1810    0.0001    0.0786
     in Z         0.0102    0.0007    0.0662    0.0039    0.0049    0.0001
  Raman Intsty    0.0409    5.4822    0.0002    0.3709    0.0000    7.1481

     1 x       0.134987 -0.034657 -0.018852 -0.017232  0.006905 -0.017473
     1 y       0.014645  0.206179 -0.023322  0.040794  0.003134  0.153689
     1 z      -0.157603 -0.009861 -0.017337 -0.008063 -0.015433  0.014318
     2 x      -0.030860  0.137167  0.269633  0.066456  0.014719  0.011800
     2 y       0.103026  0.043125 -0.043116  0.230070 -0.021824  0.096234
     2 z      -0.018516 -0.105622  0.265666 -0.000913  0.013522 -0.051660
     3 x       0.032397 -0.074740  0.305175 -0.027795  0.004313 -0.069208
     3 y      -0.109154 -0.017225 -0.052554  0.204408  0.039638  0.082917
     3 z      -0.045505  0.155471  0.227027  0.109869  0.029625  0.034231
     4 x      -0.121428  0.171096  0.130597 -0.204514  0.022061  0.072072
     4 y      -0.037220  0.124142  0.214174 -0.233569  0.003282  0.055670
     4 z       0.114719  0.183432  0.158947 -0.212143 -0.034137  0.070916
     5 x      -0.098813 -0.162992  0.108712  0.338484  0.033702 -0.097786
     5 y      -0.009827  0.006477 -0.175467 -0.190913 -0.016610 -0.000657
     5 z       0.118102 -0.123561  0.065455  0.256049  0.006156 -0.083780
     6 x      -0.006771 -0.007721  0.036484  0.006531 -0.092499 -0.003875
     6 y      -0.003347  0.063750  0.003634 -0.309987 -0.042210 -0.576375
     6 z       0.006857  0.007807  0.011273 -0.060380  0.110316 -0.107544
     7 x       0.125330 -0.002614 -0.035675  0.182884  0.086415 -0.143032
     7 y       0.299997  0.135734 -0.029202  0.138308 -0.465098 -0.118169
     7 z      -0.360298  0.000759 -0.012824 -0.322142 -0.135255  0.231771
     8 x       0.000592 -0.337331 -0.065983 -0.081060  0.184651  0.010590
     8 y       0.009073 -0.361444  0.044806 -0.150649  0.200087 -0.014655
     8 z      -0.018819  0.348178 -0.105489  0.067360 -0.212820  0.000837
     9 x      -0.018735  0.346656 -0.131545  0.056527  0.210829 -0.000180
     9 y       0.031748 -0.213751  0.043331 -0.103936 -0.127314 -0.012642
     9 z       0.068781 -0.438002 -0.027022 -0.090748 -0.265404  0.013221
    10 x       0.366980  0.033268  0.015862 -0.304892  0.008696  0.222549
    10 y      -0.226143  0.096074 -0.112539 -0.025019  0.490194 -0.042811
    10 z      -0.221174 -0.001833 -0.070163  0.248232  0.015579 -0.190842
    11 x      -0.385242 -0.020596 -0.370705 -0.052925 -0.234450 -0.314370
    11 y      -0.081108 -0.080422  0.259614  0.218377 -0.016345  0.185039
    11 z       0.489661  0.040564 -0.268522 -0.022522  0.223579 -0.221387
    12 x      -0.024601 -0.052857 -0.350244  0.033429 -0.250313  0.343264
    12 y       0.006677 -0.047113 -0.106558  0.091037 -0.050947  0.127976
    12 z       0.066264 -0.064997 -0.318105  0.016066  0.258962  0.290516


  Frequency     406.9690  422.9374  462.6211  477.5339  485.8138  644.1593
  IR Intensity    0.4373    0.1767    0.4458    0.6652    0.0680    0.0159
     in X         0.0107    0.0738    0.2014    0.3078    0.0107    0.0003
     in Y         0.4253    0.0041    0.0246    0.0137    0.0549    0.0155
     in Z         0.0013    0.0988    0.2198    0.3438    0.0025    0.0001
  Raman Intsty    0.7350    0.0001    0.1397    0.0001    0.8849    3.9761

     1 x       0.055540  0.425211 -0.482188 -0.088987  0.206510  0.013764
     1 y      -0.185269  0.086835 -0.180194 -0.021201 -0.746455 -0.220500
     1 z       0.002749 -0.497571 -0.452948  0.053773  0.048678 -0.027842
     2 x      -0.001261  0.030514 -0.084120 -0.354532  0.115703 -0.417117
     2 y      -0.381646  0.261036 -0.016884  0.129932  0.229371  0.115818
     2 z       0.048202 -0.018833 -0.149911  0.395000 -0.128131  0.492430
     3 x       0.111971  0.056129 -0.125019 -0.330019 -0.144816  0.383316
     3 y      -0.365688 -0.229495 -0.005469 -0.269387  0.177896  0.284564
     3 z      -0.090403 -0.076616 -0.102337  0.354594  0.177876 -0.445432
     4 x      -0.103725 -0.064079  0.277161  0.021948  0.087383  0.017427
     4 y      -0.092926 -0.010381  0.270995  0.013354  0.203401  0.040190
     4 z      -0.102773  0.080874  0.286150  0.001730  0.110318  0.022067
     5 x       0.059917 -0.072933  0.345870  0.027386 -0.212702 -0.019429
     5 y      -0.004399 -0.012856 -0.118198 -0.001700  0.150039  0.034526
     5 z       0.052698  0.077821  0.274999 -0.001756 -0.154902 -0.010302
     6 x      -0.006680  0.006173  0.015934  0.109699  0.001793  0.001409
     6 y      -0.004800 -0.000697 -0.016353  0.022741 -0.080115 -0.043891
     6 z      -0.008245 -0.007623  0.023155 -0.127880 -0.012513 -0.007148
     7 x      -0.066694 -0.212734  0.009783  0.035907  0.058059 -0.015776
     7 y       0.497873  0.033850  0.041707  0.139772  0.115229 -0.026474
     7 z       0.092122  0.353376  0.033901 -0.052129 -0.115814  0.021843
     8 x      -0.052552  0.067533  0.023966  0.202478  0.030600 -0.113300
     8 y       0.022855  0.126543  0.003352  0.186224 -0.013249 -0.107166
     8 z       0.048773 -0.072187  0.019185 -0.226161 -0.038477  0.128741
     9 x       0.036403  0.079346 -0.002628  0.223095 -0.031313  0.126521
     9 y       0.038486 -0.096821  0.013709 -0.097741 -0.024522 -0.057604
     9 z      -0.055706 -0.099746  0.050622 -0.261139  0.033948 -0.150835
    10 x      -0.012224 -0.298222  0.018528  0.070697 -0.116648  0.023429
    10 y       0.498229 -0.154509  0.058620 -0.112760  0.077368 -0.018555
    10 z       0.032674  0.243320  0.023064 -0.068419  0.091594 -0.024346
    11 x      -0.189856 -0.047793  0.062624  0.107264 -0.060683 -0.017469
    11 y       0.123822 -0.010798 -0.042509  0.013832 -0.008671 -0.018840
    11 z      -0.129779  0.056423  0.054166 -0.103623 -0.052614 -0.022426
    12 x       0.137302 -0.067235  0.072573  0.123302  0.032118  0.021063
    12 y       0.032185 -0.015394  0.030038  0.027720 -0.015289 -0.016541
    12 z       0.117250  0.074408  0.075096 -0.117947  0.021175  0.019578




--------------------------------------------------------------------------------
  Vibrational properties (for cluster):  Temperature  =       0.000 K
--------------------------------------------------------------------------------
  Zero point energy            =        0.513595 eV
--------------------------------------------------------------------------------

  Phonon density of states : 

--------------------------------------------------------------------------------
 Frequency (cm-1) Density of States                                             
--------------------------------------------------------------------------------
    0.00000 |*********************************************                 0.091
   10.06499 |                                                              0.000
   20.12998 |                                                              0.000
   30.19497 |                                                              0.000
   40.25996 |                                                              0.000
   50.32495 |***************                                               0.030
   60.38994 |                                                              0.000
   70.45493 |                                                              0.000
   80.51992 |                                                              0.000
   90.58491 |                                                              0.000
  100.64990 |                                                              0.000
  110.71489 |                                                              0.000
  120.77988 |                                                              0.000
  130.84487 |******************************                                0.061
  140.90986 |******************************                                0.061
  150.97485 |******************************                                0.061
  161.03983 |************************************************************  0.121
  171.10482 |                                                              0.000
  181.16981 |***************                                               0.030
  191.23480 |                                                              0.000
  201.29979 |                                                              0.000
  211.36478 |***************                                               0.030
  221.42977 |                                                              0.000
  231.49476 |***************                                               0.030
  241.55975 |                                                              0.000
  251.62474 |                                                              0.000
  261.68973 |******************************                                0.061
  271.75472 |                                                              0.000
  281.81971 |***************                                               0.030
  291.88470 |***************                                               0.030
  301.94969 |******************************                                0.061
  312.01468 |                                                              0.000
  322.07967 |                                                              0.000
  332.14466 |***************                                               0.030
  342.20965 |                                                              0.000
  352.27464 |******************************                                0.061
  362.33963 |***************                                               0.030
  372.40462 |                                                              0.000
  382.46961 |                                                              0.000
  392.53460 |                                                              0.000
  402.59959 |***************                                               0.030
  412.66458 |                                                              0.000
  422.72957 |***************                                               0.030
  432.79456 |                                                              0.000
  442.85955 |                                                              0.000
  452.92454 |***************                                               0.030
  462.98953 |                                                              0.000
  473.05452 |***************                                               0.030
  483.11950 |***************                                               0.030
  493.18449 |                                                              0.000
  503.24948 |                                                              0.000
  513.31447 |                                                              0.000
  523.37946 |                                                              0.000
  533.44445 |                                                              0.000
  543.50944 |                                                              0.000
  553.57443 |                                                              0.000
  563.63942 |                                                              0.000
  573.70441 |                                                              0.000
  583.76940 |                                                              0.000
  593.83439 |                                                              0.000
  603.89938 |                                                              0.000
  613.96437 |                                                              0.000
  624.02936 |                                                              0.000
  634.09435 |***************                                               0.030
--------------------------------------------------------------------------------



  XYZ File written as 005/0/sp_mod_20/sp_mod_20_eig.xyz


  Time to end of properties =       0.0144 seconds


  Peak dynamic memory used =       0.64 MB 


  Timing analysis for GULP :

--------------------------------------------------------------------------------
  Task / Subroutine                                          Time (Seconds)
--------------------------------------------------------------------------------
  Calculation of phonons                                          0.0039
--------------------------------------------------------------------------------
  Total CPU time                                                  0.0144
--------------------------------------------------------------------------------


  Job Finished at 10:34.37 17th May        2022                               

