12
Properties=species:S:1:pos:R:3:forces:R:3 energy=-185.72175922 pbc="F F F"
Al    -0.36489553799999996    1.1610224599999999    -1.773060036    -0.593431    1.024739    1.06248
Al    -0.40154301400000003    1.0328910530000002    1.3320783360000001    -0.218044    -0.207125    -0.25821
Al    -2.902307619    0.411512189    -1.836444542    -0.170976    -0.343136    -0.088553
F    -3.384505461    0.398385908    -3.597553708    0.053037    -0.069648    -0.01632
F    -1.243975757    -0.573025801    -1.815007945    0.224272    -0.264446    -0.450205
F    -1.9784334870000002    2.1536013030000003    -1.8357160829999999    -0.022945    0.281941    0.396035
F    -1.784716125    0.457170239    0.248354724    -0.302055    -0.745359    0.157658
F    0.6240958270000001    1.842238143    -0.332854911    0.18267    0.853468    -0.026917
F    -0.302670575    2.753296897    2.115376647    0.672375    0.807481    -0.34225
F    -0.09760928499999999    -0.580610158    2.212126445    -0.377969    -0.732476    0.301734
F    -4.0776857920000005    0.27694057    -0.44982896499999997    -0.079295    0.082031    0.031924
F    0.294451327    0.871859837    -3.634412229    0.63236    -0.687471    -0.767376
