12
Properties=species:S:1:pos:R:3:forces:R:3 energy=-180.61856334 pbc="F F F"
Al    0.28159799300000005    -0.160851558    2.168732539    -0.996144    6.609895    6.255093
Al    2.2392747650000002    -1.820549672    -0.43046369700000003    -5.938426    2.447891    4.756598
Al    -0.810898981    -1.859723958    -0.874818743    4.271285    2.579004    6.243952
F    3.559291107    -0.402320393    -1.15722258    1.953231    1.791564    -1.036662
F    -1.903983454    -0.47248228800000003    -1.9531229970000001    -1.620762    1.745663    -1.557325
F    2.7455835950000003    -3.602524894    -0.491220843    1.028821    -3.314108    -0.140256
F    -1.233859966    -3.6536292020000003    -1.0709531200000002    -0.86238    -3.338388    -0.415766
F    2.027371597    -1.5040631930000001    1.077894202    2.998993    -2.253276    -5.286151
F    0.830433164    -1.513061682    -1.479420865    -0.118053    -0.354488    0.841602
F    0.21390435200000002    -0.760023763    2.686220689    1.055615    3.941393    -7.593481
F    0.357964371    0.353190099    1.5992153359999999    -0.463388    -7.546553    3.846104
F    -1.046108268    -1.543534383    0.630144214    -1.308791    -2.308597    -5.913709
