12
Properties=species:S:1:pos:R:3:forces:R:3 energy=-186.30593432 pbc="F F F"
Al    -1.636158861    2.7277682199999997    -1.140227291    0.167157    0.178465    0.185427
Al    -0.5671133549999999    0.003560006    -2.3519813739999997    -0.142061    0.014608    0.03915
Al    -2.209905176    -0.330691318    -0.549331437    0.020084    0.047599    -0.138773
F    -0.934561541    4.159384636    -0.235394057    -0.114856    0.123213    -0.081825
F    -2.9254678469999997    3.5170889929999998    -2.168844992    -0.004798    0.089255    0.012177
F    -1.3327296800000001    -1.668747427    -1.678916561    0.026032    0.002387    0.024166
F    -2.482407562    1.485247483    0.030335761999999995    0.006455    -0.013539    0.008659
F    -2.996246363    -1.8576824319999998    0.27925525300000004    0.056541    -0.235126    -0.051335
F    0.433461998    -1.159856341    -3.484192504    -0.001381    -0.246911    0.012224
F    -0.359455925    1.9171947139999999    -2.299198031    0.011623    -0.012488    0.002988
F    -2.487362757    0.474307151    -2.3337880280000003    -0.011183    -0.014629    -0.012904
F    -0.335595168    0.264764639    -0.411692208    -0.013615    0.067167    4.7e-05
