********************************************************************************
*                       GENERAL UTILITY LATTICE PROGRAM                        *
*                                 Julian Gale                                  *
*                       Curtin Institute for Computation                       *
*                           Department of Chemistry                            *
*                    Curtin University, Western Australia                      *
********************************************************************************
* Version = 5.1.1 * Last modified =  11th January 2019                         *
********************************************************************************
*  single       - perform a single point run                                   *
*  phonon       - calculate phonons for final geometry                         *
*  eigenvectors - output phonon eigenvectors                                   *
********************************************************************************

  Job Started  at 10:33.06 17th May        2022                               

  Number of CPUs =     1

  Host name      = login04                                 


  Total number of configurations input =      1

********************************************************************************
*  Input for Configuration =   1                                               *
********************************************************************************

  Formula = Al3F9                                                       

  Number of irreducible atoms/shells =      21


  Total number atoms/shells =      21

  Dimensionality = 0               :  Cluster


  Charge on cluster =  -0.000000


  Initial cluster dipoles : x =      0.864337 e.Angs
                            y =      0.388330 e.Angs
                            z =     -0.235252 e.Angs

  Temperature of configuration =  0.000     K 

  Symmetry number =      1

  Cartesian coordinates of cluster :

--------------------------------------------------------------------------------
   No.  Atomic       x           y          z         Charge      Occupancy
        Label      (Angs)      (Angs)     (Angs)        (e)         (Frac)  
--------------------------------------------------------------------------------
      1 Al    c     -0.1569      1.7134      2.0894     3.00000    1.000000    
      2 Al    c      2.5039      2.7186      1.9041     3.00000    1.000000    
      3 Al    c      1.4797      2.5053     -0.6056     3.00000    1.000000    
      4 F     c      0.9112      3.1094      2.9507     0.59000    1.000000    
      5 F     c     -1.7635      2.5808      2.1239     0.59000    1.000000    
      6 F     c     -0.3604     -0.0078      2.7080     0.59000    1.000000    
      7 F     c      1.7629      0.9847      1.8429     0.59000    1.000000    
      8 F     c      3.0752      1.8060     -0.0261     0.59000    1.000000    
      9 F     c      1.0160      3.0617     -2.2944     0.59000    1.000000    
     10 F     c      1.7626      3.9329      0.6630     0.59000    1.000000    
     11 F     c      4.3054      3.0433      2.2318     0.59000    1.000000    
     12 F     c     -0.0934      1.9122      0.1992     0.59000    1.000000    
     13 F     s      0.9112      3.1094      2.9507    -1.59000    1.000000    
     14 F     s     -1.7635      2.5808      2.1239    -1.59000    1.000000    
     15 F     s     -0.3604     -0.0078      2.7080    -1.59000    1.000000    
     16 F     s      1.7629      0.9847      1.8429    -1.59000    1.000000    
     17 F     s      3.0752      1.8060     -0.0261    -1.59000    1.000000    
     18 F     s      1.0160      3.0617     -2.2944    -1.59000    1.000000    
     19 F     s      1.7626      3.9329      0.6630    -1.59000    1.000000    
     20 F     s      4.3054      3.0433      2.2318    -1.59000    1.000000    
     21 F     s     -0.0934      1.9122      0.1992    -1.59000    1.000000    
--------------------------------------------------------------------------------


  Brillouin zone sampling points :

--------------------------------------------------------------------------------
  Point number          x          y          z            Weight
--------------------------------------------------------------------------------
        1           0.000000   0.000000   0.000000     1.00000000
--------------------------------------------------------------------------------


********************************************************************************
*  General input information                                                   *
********************************************************************************

  Species output for all configurations : 

--------------------------------------------------------------------------------
  Species    Type    Atomic    Atomic    Charge       Radii (Angs)     Library
                     Number     Mass       (e)     Cova   Ionic  VDW   Symbol
--------------------------------------------------------------------------------
    Al       Core       13      26.98   3.000000   1.350  0.000  2.050          
    F        Core        9      19.00   0.590000   0.710  0.000  1.300          
    F        Shell       9       0.00  -1.590000   0.710  0.000  1.300          
--------------------------------------------------------------------------------


  Accuracy factor for short range sums = 12.000

  Time limit = Infinity

  Maximum range for interatomic potentials =    100000.000000 Angstroms

  General interatomic potentials :

--------------------------------------------------------------------------------
Atom  Types   Potential      Parameter       Value         Units   Cutoffs(Ang)
  1     2                                                            Min /  Max 
--------------------------------------------------------------------------------
Al   c F    s Buckingham    Buckingham A     3760.0008    eV        0.000 10.000
                            Buckingham rho  0.22200000    Ang       
                            Buckingham C     0.0000000    eV*Ang^6  
--------------------------------------------------------------------------------
F    s F    s Buck 4 range  Buck4 A          1127.7000    eV        0.000 12.000
                            Buck4 rho       0.27530000    Ang       
                            Buck4 C          15.830000    eV*Ang^6  
                            Buck4 minimum    2.7900000    Ang       
--------------------------------------------------------------------------------
F    c F    s Spring (c-s)  Spring k 2       20.770000    eV*Ang^-2 0.000  0.800
                            Spring k 4       0.0000000    eV*Ang^-4 
--------------------------------------------------------------------------------

********************************************************************************
*  Output for configuration   1                                                *
********************************************************************************


  Components of energy : 

--------------------------------------------------------------------------------
  Interatomic potentials     =          10.00968419 eV    
  Monopole - monopole (real) =        -177.28839240 eV    
--------------------------------------------------------------------------------
  Total lattice energy       =        -167.27870821 eV    
--------------------------------------------------------------------------------
  Total lattice energy       =          -16139.8383 kJ/mol
--------------------------------------------------------------------------------

  Born effective charge tensors : 

-------------------------------------------------------------------------------
  Atom             x           y             z
-------------------------------------------------------------------------------
    1 Al    x       2.4428     -0.0424     -0.0845
            y      -0.0445      2.2246     -0.1292
            z       0.0006     -0.0600      1.9696
-------------------------------------------------------------------------------
    2 Al    x       2.7632      0.1132     -0.2332
            y       0.1244      1.9799      0.0676
            z      -0.1398      0.0305      2.2962
-------------------------------------------------------------------------------
    3 Al    x       2.1635      0.0689      0.2033
            y       0.0541      1.8399     -0.1594
            z       0.0574     -0.2013      2.5228
-------------------------------------------------------------------------------
    4 F     x      -0.8968     -0.1207      0.1018
            y      -0.1296     -0.6256     -0.2509
            z       0.1432     -0.2257     -0.6902
-------------------------------------------------------------------------------
    5 F     x      -1.1543      0.2708      0.0329
            y       0.1973     -0.6072      0.0397
            z       0.1442     -0.0399     -0.5478
-------------------------------------------------------------------------------
    6 F     x      -0.5785     -0.2326      0.0960
            y      -0.1236     -1.1818      0.2530
            z       0.0604      0.3105     -0.6340
-------------------------------------------------------------------------------
    7 F     x      -0.8182      0.0313      0.0015
            y      -0.0060     -0.8406      0.0383
            z       0.0763      0.0879     -0.4978
-------------------------------------------------------------------------------
    8 F     x      -0.7903      0.1909      0.0890
            y       0.2104     -0.5320     -0.1403
            z       0.0836     -0.2010     -0.8881
-------------------------------------------------------------------------------
    9 F     x      -0.5475      0.0377     -0.1422
            y       0.0523     -0.5682      0.2156
            z      -0.2031      0.2558     -1.2952
-------------------------------------------------------------------------------
   10 F     x      -0.4281      0.0099     -0.0836
            y       0.0039     -0.8153     -0.0150
            z      -0.1228     -0.0240     -0.7301
-------------------------------------------------------------------------------
   11 F     x      -1.4246     -0.1705     -0.1764
            y      -0.2070     -0.5204     -0.0252
            z      -0.2728     -0.0372     -0.5822
-------------------------------------------------------------------------------
   12 F     x      -0.7314     -0.1567      0.1955
            y      -0.1317     -0.3533      0.1058
            z       0.1727      0.1045     -0.9231
-------------------------------------------------------------------------------




  Moment of inertia tensor (10^-46 x kgm^2): 

-------------------------------------------------------------------------------
                x           y           z           Principal axis system
-------------------------------------------------------------------------------
       x        132.10      -20.34       12.03          114.884403
       y        -20.34      192.56       16.68          149.372685
       z         12.03       16.68      141.08          201.491659
-------------------------------------------------------------------------------
  Centre of mass (Ang) =     1.210397     2.283117     1.147057
-------------------------------------------------------------------------------


  Vibrational Frequency Calculation : 

--------------------------------------------------------------------------------

  Frequencies (cm-1) and Eigenvectors : 

  Frequency    -361.6328 -240.9743 -223.1393   -0.0000   -0.0000   -0.0000
  IR Intensity    0.0225    0.0151    0.0023    0.0000    0.0000    0.0000
     in X         0.0079    0.0048    0.0003    0.0000    0.0000    0.0000
     in Y         0.0002    0.0014    0.0017    0.0000    0.0000    0.0000
     in Z         0.0143    0.0090    0.0002    0.0000    0.0000    0.0000
  Raman Intsty    0.2591    0.2889    0.0254    0.0000    0.0000    0.0000

     1 x       0.049648  0.374209 -0.062489  0.144951 -0.226162 -0.186892
     1 y      -0.301846 -0.363180 -0.362761  0.257167 -0.002398  0.202357
     1 z      -0.199876  0.198187 -0.362003 -0.141221 -0.236503  0.176669
     2 x      -0.356600  0.103176 -0.108978  0.144951 -0.226162 -0.186892
     2 y       0.601324  0.257666 -0.199652  0.257167 -0.002398  0.202357
     2 z       0.353793 -0.283825  0.263842 -0.141221 -0.236503  0.176669
     3 x       0.235573 -0.403467  0.158107  0.144951 -0.226162 -0.186892
     3 y      -0.292662  0.058750  0.648103  0.257167 -0.002398  0.202357
     3 z      -0.042127 -0.010371  0.061009 -0.141221 -0.236503  0.176669
     4 x       0.057697  0.122352  0.128607  0.121640 -0.189791 -0.156837
     4 y       0.079977  0.026347 -0.021116  0.215810 -0.002013  0.169814
     4 z       0.081722 -0.011924 -0.086530 -0.118510 -0.198469  0.148257
     5 x       0.079449  0.249912  0.022835  0.121640 -0.189791 -0.156837
     5 y      -0.044813 -0.165030 -0.070443  0.215810 -0.002013  0.169814
     5 z       0.007576  0.004295  0.006180 -0.118510 -0.198469  0.148257
     6 x      -0.023223 -0.027996 -0.071479  0.121640 -0.189791 -0.156837
     6 y      -0.090361 -0.240797 -0.147604  0.215810 -0.002013  0.169814
     6 z       0.008844  0.119513 -0.061891 -0.118510 -0.198469  0.148257
     7 x      -0.051530 -0.145730 -0.033675  0.121640 -0.189791 -0.156837
     7 y       0.132992  0.031588 -0.155867  0.215810 -0.002013  0.169814
     7 z      -0.051697 -0.001050  0.047669 -0.118510 -0.198469  0.148257
     8 x       0.063398 -0.180953 -0.053027  0.121640 -0.189791 -0.156837
     8 y      -0.111218  0.168793  0.069093  0.215810 -0.002013  0.169814
     8 z      -0.147396  0.217067  0.139673 -0.118510 -0.198469  0.148257
     9 x       0.021572 -0.066577  0.017539  0.121640 -0.189791 -0.156837
     9 y      -0.032557  0.029228  0.162019  0.215810 -0.002013  0.169814
     9 z       0.019572 -0.051682 -0.004215 -0.118510 -0.198469  0.148257
    10 x       0.031629 -0.063299 -0.016928  0.121640 -0.189791 -0.156837
    10 y       0.010998  0.153245  0.091104  0.215810 -0.002013  0.169814
    10 z      -0.013102 -0.060805 -0.027252 -0.118510 -0.198469  0.148257
    11 x      -0.084720  0.070945 -0.039696  0.121640 -0.189791 -0.156837
    11 y       0.044714  0.061186 -0.039380  0.215810 -0.002013  0.169814
    11 z       0.009942 -0.036169  0.062296 -0.118510 -0.198469  0.148257
    12 x      -0.009217 -0.046736  0.061743  0.121640 -0.189791 -0.156837
    12 y       0.002145 -0.008834  0.010083  0.215810 -0.002013  0.169814
    12 z      -0.048673 -0.064835 -0.031659 -0.118510 -0.198469  0.148257


  Frequency     106.8992  126.1311  132.6733  140.8681  144.6995  154.3954
  IR Intensity    0.0245    0.0021    0.0084    0.0019    0.0002    0.0039
     in X         0.0003    0.0004    0.0033    0.0000    0.0000    0.0039
     in Y         0.0032    0.0013    0.0003    0.0009    0.0000    0.0000
     in Z         0.0210    0.0004    0.0048    0.0009    0.0001    0.0001
  Raman Intsty    0.0233    0.0179    0.0194    0.0947    0.0355    0.0161

     1 x       0.111715 -0.022055 -0.068179 -0.010387 -0.013924  0.039831
     1 y      -0.025686 -0.031141 -0.044135 -0.003115 -0.035651  0.058294
     1 z       0.174473  0.126909  0.036375 -0.018602 -0.015674  0.054358
     2 x      -0.082131 -0.115379 -0.014228 -0.087062  0.000486  0.028095
     2 y      -0.096898  0.095589  0.008024 -0.041188  0.059110 -0.019694
     2 z       0.033226 -0.066852 -0.084086 -0.005779  0.003237 -0.011628
     3 x      -0.077096  0.072457  0.113063  0.065384 -0.010387  0.004630
     3 y       0.191422  0.001576 -0.014790 -0.005088  0.016357  0.000908
     3 z      -0.108746 -0.114404  0.002274 -0.063540  0.026884  0.001644
     4 x       0.013791 -0.147732 -0.163910  0.039979 -0.105689 -0.182782
     4 y       0.026956  0.062317 -0.005375 -0.050057 -0.161765  0.173568
     4 z       0.040980 -0.237999 -0.168573 -0.029614  0.074115  0.157285
     5 x       0.099503 -0.094862 -0.357310  0.104974 -0.190826 -0.084199
     5 y      -0.088419 -0.097537 -0.502671  0.209681 -0.294280 -0.186187
     5 z       0.209264 -0.064789  0.157113 -0.268556 -0.290404 -0.314825
     6 x       0.290447 -0.153797  0.135583 -0.129548  0.303976  0.012918
     6 y       0.033383  0.070136 -0.057902  0.274326  0.016157 -0.126758
     6 z       0.369509  0.117462  0.186438  0.664339  0.093595 -0.133511
     7 x       0.049447  0.246582 -0.075607 -0.164201  0.217582 -0.196994
     7 y       0.032735 -0.199602  0.002956 -0.101242 -0.013754  0.236334
     7 z      -0.085630  0.510747 -0.215519 -0.171115 -0.070724  0.189700
     8 x      -0.093133 -0.197804  0.128467  0.019148  0.159464 -0.116168
     8 y      -0.276875 -0.158279  0.153523  0.057319  0.322499 -0.272403
     8 z      -0.499785  0.043288  0.079115  0.138216 -0.105733  0.085564
     9 x      -0.194302  0.053646  0.268885  0.328157 -0.108843  0.480913
     9 y       0.343781 -0.052418 -0.120370 -0.091638  0.169374  0.429985
     9 z      -0.087538 -0.118008 -0.032284 -0.167895  0.105713  0.005999
    10 x       0.060846  0.180029  0.149005 -0.083220 -0.300409 -0.076261
    10 y      -0.084945  0.160528  0.113450 -0.003082 -0.019439 -0.103495
    10 z      -0.044884 -0.144771 -0.040412 -0.043535  0.148961  0.139242
    11 x      -0.190699 -0.114813 -0.024775 -0.111080 -0.076313  0.053364
    11 y      -0.153512  0.241491  0.014000 -0.096378  0.325201 -0.164221
    11 z      -0.074681 -0.228325  0.003181  0.116992  0.048857 -0.062594
    12 x       0.020716  0.306183 -0.096869  0.034001  0.129449  0.022748
    12 y       0.084866 -0.105312  0.463045 -0.140075 -0.391439 -0.033902
    12 z       0.054848  0.187156  0.085085 -0.134063 -0.021596 -0.119738


  Frequency     156.2115  167.5053  175.3393  179.7319  183.7254  200.6125
  IR Intensity    0.0007    0.0038    0.0013    0.0045    0.0051    0.0005
     in X         0.0003    0.0000    0.0002    0.0007    0.0036    0.0000
     in Y         0.0000    0.0023    0.0000    0.0038    0.0001    0.0005
     in Z         0.0003    0.0015    0.0011    0.0000    0.0014    0.0000
  Raman Intsty    0.0184    0.0556    0.0177    0.0249    0.0012    0.3390

     1 x       0.025522 -0.089587  0.056686  0.008514  0.062710  0.043013
     1 y       0.019087 -0.042085 -0.025610  0.044236  0.010590  0.071224
     1 z      -0.039986 -0.106990  0.089725 -0.047317 -0.079241 -0.041617
     2 x       0.069899  0.079630 -0.041605 -0.046393  0.084739  0.145480
     2 y       0.022387  0.026313  0.075966  0.043246 -0.111350  0.013563
     2 z       0.050342  0.006927 -0.014489  0.085030  0.074519  0.023376
     3 x      -0.068872  0.052612 -0.024141  0.038010 -0.003772 -0.031301
     3 y      -0.023786 -0.053720 -0.045290  0.133258  0.086858  0.069537
     3 z       0.050449  0.127236 -0.083719 -0.036562  0.038106 -0.079329
     4 x      -0.142999  0.121901  0.074484  0.005942  0.115435  0.314375
     4 y       0.257490 -0.043895 -0.429184  0.226477 -0.035851  0.144070
     4 z      -0.259322  0.016710  0.296043  0.116962  0.191632  0.145210
     5 x      -0.072119 -0.140555 -0.019224 -0.056676  0.002767 -0.135778
     5 y      -0.104456 -0.064819 -0.037935 -0.082064 -0.019466 -0.448512
     5 z      -0.343937 -0.099342 -0.374056 -0.110597 -0.370947  0.192488
     6 x       0.067625 -0.174334 -0.284788  0.242951  0.200644 -0.463309
     6 y       0.029480  0.139260  0.072431  0.048058 -0.019464  0.300186
     6 z       0.048175  0.263150 -0.097735  0.085932  0.079891  0.009096
     7 x      -0.037108 -0.091011  0.162744  0.037282 -0.099584 -0.003493
     7 y       0.108211 -0.011124 -0.179761  0.161415  0.071712  0.098478
     7 z       0.027595 -0.110454  0.028761  0.246187  0.017026  0.061686
     8 x       0.012034  0.033488 -0.031130 -0.044898 -0.120158  0.034456
     8 y      -0.023540 -0.075058  0.137252  0.156473 -0.390276 -0.078450
     8 z       0.027902  0.109089 -0.139536 -0.011152  0.106795 -0.167359
     9 x      -0.351786 -0.254711 -0.094123 -0.166777 -0.185509 -0.030670
     9 y      -0.001884  0.209706  0.140515 -0.430219 -0.288276 -0.038459
     9 z       0.120991  0.365705 -0.056663 -0.203140 -0.072480 -0.199810
    10 x       0.428743  0.184429  0.087017 -0.303758  0.032289 -0.101830
    10 y       0.093945  0.010926  0.134775  0.055551 -0.141440 -0.142096
    10 z      -0.113286  0.006077  0.147591  0.116318  0.040662 -0.061377
    11 x       0.040294  0.353706 -0.018012  0.200161 -0.040280  0.181249
    11 y      -0.257122 -0.033007 -0.258097 -0.455370  0.509799  0.111678
    11 z       0.487930 -0.572836  0.109730 -0.267719  0.025548  0.237865
    12 x       0.023681 -0.083743  0.133829  0.085616 -0.076816  0.017686
    12 y      -0.123201 -0.049178  0.413968  0.056637  0.329830 -0.130793
    12 z      -0.068507 -0.010479  0.095975  0.025836 -0.057910 -0.101531


  Frequency     217.3844  228.2864  242.6538  252.7298  257.3942  276.3434
  IR Intensity    0.0134    0.0529    0.0558    0.0430    0.0033    0.0168
     in X         0.0010    0.0399    0.0438    0.0134    0.0018    0.0071
     in Y         0.0017    0.0000    0.0001    0.0079    0.0000    0.0013
     in Z         0.0107    0.0129    0.0119    0.0217    0.0015    0.0084
  Raman Intsty    0.0471    0.2302    1.4308    0.5103    0.4442    0.1997

     1 x       0.078795 -0.122198 -0.080743 -0.156808  0.016398  0.165103
     1 y      -0.049269  0.059830 -0.194895 -0.028526  0.007626  0.027418
     1 z      -0.099859 -0.155283 -0.001663 -0.081602 -0.042279 -0.134400
     2 x       0.036368 -0.059744  0.077414 -0.065243  0.048169  0.040713
     2 y       0.037672  0.169804  0.024033 -0.070285 -0.010723 -0.048921
     2 z      -0.075290 -0.013827  0.127123 -0.033111 -0.034838  0.130720
     3 x       0.098449 -0.106902 -0.255062  0.043183 -0.136619 -0.036995
     3 y      -0.184417 -0.050617  0.088501 -0.139559 -0.033854 -0.041317
     3 z      -0.041926 -0.057412  0.140356 -0.205158  0.150696  0.045026
     4 x       0.023072  0.194974 -0.122409 -0.022164  0.462872 -0.284445
     4 y       0.143729 -0.264710  0.010662 -0.140139  0.105833 -0.091915
     4 z      -0.390525  0.051674 -0.199176  0.169778  0.043182 -0.078866
     5 x       0.074124 -0.193383 -0.021043 -0.028257 -0.089962  0.299688
     5 y       0.014991  0.007651  0.166560  0.101033 -0.044497 -0.202014
     5 z      -0.028546  0.139199 -0.137438  0.091215 -0.162217  0.123929
     6 x      -0.007474  0.373527 -0.081292  0.140204  0.093692 -0.011835
     6 y       0.077191  0.205229 -0.083456 -0.159663  0.083508  0.316451
     6 z       0.078500 -0.036382  0.102159  0.161680 -0.045875 -0.028038
     7 x       0.192573  0.210303  0.158749 -0.159284  0.080540  0.192544
     7 y      -0.186629 -0.076756 -0.036237  0.013962 -0.026246 -0.048901
     7 z       0.106430 -0.038104  0.109971  0.480571  0.267483  0.170328
     8 x       0.044375 -0.443305 -0.043700  0.204370  0.082563 -0.026790
     8 y      -0.129822 -0.192538  0.049831  0.284025  0.129482  0.069026
     8 z       0.142714  0.190204 -0.502087  0.055278 -0.108375  0.084591
     9 x      -0.125572  0.124718  0.287235 -0.119301  0.197390 -0.023120
     9 y       0.231604  0.080220 -0.133077  0.230111 -0.059633 -0.016874
     9 z       0.175556 -0.052143  0.029574 -0.236778  0.291448 -0.014961
    10 x      -0.538766  0.001007  0.030556  0.150257  0.023766  0.141288
    10 y      -0.220074  0.234596 -0.037812 -0.213777 -0.041134  0.008286
    10 z      -0.040374 -0.099665  0.143639 -0.249541 -0.306774  0.316005
    11 x       0.108346  0.245128  0.413049  0.211169 -0.462683 -0.196207
    11 y      -0.051262 -0.092622  0.125024  0.089138 -0.122629 -0.012274
    11 z       0.173833  0.178114  0.060724  0.074928 -0.101027 -0.134342
    12 x      -0.025225 -0.168771 -0.313236 -0.163848 -0.302318 -0.292297
    12 y       0.353851 -0.114393  0.036652  0.079360  0.019348  0.053076
    12 z       0.041087 -0.062965  0.075880 -0.165962  0.034474 -0.487915


  Frequency     296.9804  327.8730  332.0347  349.4068  371.9857  397.3812
  IR Intensity    0.1991    0.0039    0.1949    0.1408    0.1641    0.1122
     in X         0.0525    0.0010    0.1357    0.0125    0.0426    0.0179
     in Y         0.0304    0.0022    0.0194    0.0020    0.0002    0.0483
     in Z         0.1162    0.0007    0.0398    0.1263    0.1213    0.0460
  Raman Intsty    0.3626    0.4120    1.0126    2.3801    1.5058    0.4783

     1 x      -0.030928 -0.084266  0.024742 -0.083940 -0.083988  0.079392
     1 y      -0.042210  0.159875 -0.009639 -0.009592  0.094841 -0.389842
     1 z       0.169475  0.007652  0.070482 -0.059489  0.350546 -0.101764
     2 x      -0.131713  0.006040  0.288509  0.080225 -0.161035  0.104299
     2 y      -0.082048 -0.095523  0.177798 -0.007794 -0.092663  0.084762
     2 z       0.306223  0.013821  0.038182 -0.203855  0.118738 -0.275897
     3 x      -0.170744  0.078310  0.084259  0.145582  0.097115 -0.055469
     3 y      -0.141525 -0.216783  0.061671  0.014270  0.048001  0.040981
     3 z       0.067838 -0.079774  0.115114 -0.187324  0.084657 -0.008040
     4 x       0.105766  0.407005  0.120385 -0.086047 -0.046117 -0.147666
     4 y       0.370750  0.143266 -0.173277  0.415786 -0.005914  0.162641
     4 z       0.026424 -0.218783 -0.216260  0.411713  0.052425  0.201888
     5 x       0.021535 -0.037471 -0.302953 -0.107024  0.220761 -0.205697
     5 y      -0.037971 -0.028358  0.162718  0.087542 -0.139629  0.165105
     5 z      -0.133777  0.007807 -0.013116  0.039797 -0.122070  0.059427
     6 x       0.070413  0.082079 -0.123537 -0.133126 -0.010342  0.151513
     6 y       0.104190 -0.179052 -0.235662 -0.341389 -0.031699  0.392927
     6 z      -0.145095  0.021522  0.088812  0.176901 -0.079330 -0.133045
     7 x       0.160063 -0.341534  0.218301  0.414338  0.004568 -0.219667
     7 y      -0.281859 -0.278364  0.219806 -0.211094 -0.140606 -0.289589
     7 z      -0.253723  0.113269  0.007844 -0.117435 -0.007554  0.085872
     8 x      -0.049756 -0.089587  0.219219 -0.097416  0.352577  0.346583
     8 y       0.175998  0.064129 -0.184834 -0.009933 -0.228647 -0.196839
     8 z       0.207677 -0.174189  0.153235  0.015971 -0.010671 -0.022936
     9 x      -0.007690 -0.040937 -0.120073 -0.017262 -0.039916 -0.015616
     9 y       0.184053  0.072210  0.102834 -0.036398  0.008546  0.020091
     9 z      -0.404191 -0.047047 -0.417015  0.136171 -0.055213 -0.079769
    10 x       0.151775  0.008385 -0.024684  0.034081 -0.206012  0.022108
    10 y      -0.241039  0.312951  0.036060  0.090073  0.498016  0.115835
    10 z       0.008826  0.486544  0.178483  0.046946 -0.303994  0.173531
    11 x       0.049002 -0.029023 -0.208705 -0.047821  0.162251 -0.034247
    11 y       0.039568  0.080366 -0.104135  0.002040  0.027705 -0.016757
    11 z      -0.135874  0.022076 -0.060929  0.060655 -0.006515  0.039530
    12 x      -0.103834  0.040983 -0.251640 -0.128775 -0.261515 -0.050107
    12 y       0.003028 -0.005505 -0.097385  0.007087 -0.047567 -0.038703
    12 z       0.182036 -0.141726  0.012283 -0.233687 -0.127175  0.135119


  Frequency     409.9876  433.1232  447.7453  463.2453  501.2742  574.6149
  IR Intensity    0.2528    0.1568    0.4427    0.5460    0.1550    0.0238
     in X         0.0070    0.0542    0.3255    0.2273    0.0507    0.0001
     in Y         0.2193    0.0607    0.0511    0.2463    0.0057    0.0028
     in Z         0.0265    0.0419    0.0661    0.0725    0.0986    0.0209
  Raman Intsty    0.0023    1.0055    0.0956    0.0370    0.0003    2.6370

     1 x       0.205695 -0.058656 -0.346673 -0.406552  0.410597 -0.317179
     1 y       0.185852 -0.257146 -0.213511  0.264247  0.236677 -0.117927
     1 z       0.352235  0.323285  0.112970 -0.174732 -0.269904  0.155006
     2 x      -0.122824 -0.399124 -0.116791 -0.126704 -0.311415  0.455077
     2 y       0.323146 -0.179968 -0.051556  0.319232 -0.159331  0.105531
     2 z       0.065899 -0.256758 -0.000306 -0.296708  0.165713  0.366401
     3 x       0.050498  0.223259 -0.379249 -0.162503 -0.426212 -0.149225
     3 y       0.328388  0.092327 -0.063602  0.215933 -0.008237  0.046054
     3 z      -0.060132 -0.320157  0.194883  0.036503 -0.340722 -0.634950
     4 x       0.016898  0.206968  0.144569  0.066852  0.025195 -0.025726
     4 y      -0.084573  0.007973  0.044113 -0.023628 -0.010994 -0.022528
     4 z      -0.092684 -0.118478 -0.039057 -0.006397 -0.011671 -0.036521
     5 x      -0.278978  0.012397 -0.093730  0.383745 -0.161421  0.094592
     5 y       0.079994  0.026853  0.093940 -0.218500  0.041136 -0.027641
     5 z       0.001658 -0.067973  0.076264 -0.038552  0.041536 -0.019809
     6 x       0.048744 -0.004104  0.038135  0.031996 -0.057788  0.041020
     6 y      -0.041349  0.160695  0.025439 -0.109361 -0.126730  0.055926
     6 z      -0.094518 -0.091077  0.003874  0.055461  0.073093 -0.033025
     7 x      -0.125785  0.137415  0.185539  0.038318  0.102190 -0.060528
     7 y      -0.369297  0.339172  0.147140 -0.128001  0.033860  0.001528
     7 z      -0.004169 -0.001697 -0.008833  0.019318  0.007115 -0.029066
     8 x       0.037394  0.005290  0.216225  0.218611  0.317360  0.051704
     8 y      -0.020835  0.027116 -0.103344 -0.140436 -0.115182 -0.019335
     8 z       0.003138  0.093611  0.043235  0.084289  0.123838  0.086601
     9 x       0.006450 -0.014103  0.048185  0.023967  0.066921  0.038976
     9 y      -0.121163 -0.043167 -0.005471 -0.031932 -0.018951 -0.040447
     9 z       0.140606  0.131633  0.009694 -0.029849  0.107001  0.169812
    10 x       0.046915  0.096880  0.010586  0.114195  0.029028 -0.034725
    10 y      -0.355572 -0.090022  0.016891 -0.192683  0.116444  0.024091
    10 z      -0.021519  0.259982  0.024294  0.200038  0.088116 -0.006530
    11 x       0.076590  0.062433 -0.004259 -0.000021  0.058990 -0.092650
    11 y      -0.060210  0.036898 -0.003232 -0.063157  0.018830 -0.020535
    11 z      -0.012921  0.051965 -0.019420  0.030023 -0.023303 -0.047850
    12 x       0.012845 -0.223713  0.458959 -0.048572  0.009225  0.000837
    12 y      -0.024858 -0.054657  0.176179 -0.044912 -0.020765  0.008832
    12 z      -0.346199  0.044269 -0.456536  0.203957  0.124451  0.051688




--------------------------------------------------------------------------------
  Vibrational properties (for cluster):  Temperature  =       0.000 K
--------------------------------------------------------------------------------
  Zero point energy            =        0.511391 eV
--------------------------------------------------------------------------------

  Phonon density of states : 

--------------------------------------------------------------------------------
 Frequency (cm-1) Density of States                                             
--------------------------------------------------------------------------------
    0.00000 |                                                              0.000
    8.97836 |                                                              0.000
   17.95672 |                                                              0.000
   26.93508 |                                                              0.000
   35.91344 |                                                              0.000
   44.89180 |                                                              0.000
   53.87015 |                                                              0.000
   62.84851 |                                                              0.000
   71.82687 |                                                              0.000
   80.80523 |                                                              0.000
   89.78359 |                                                              0.000
   98.76195 |******************************                                0.033
  107.74031 |                                                              0.000
  116.71867 |                                                              0.000
  125.69703 |************************************************************  0.067
  134.67539 |******************************                                0.033
  143.65375 |******************************                                0.033
  152.63210 |************************************************************  0.067
  161.61046 |******************************                                0.033
  170.58882 |******************************                                0.033
  179.56718 |************************************************************  0.067
  188.54554 |                                                              0.000
  197.52390 |******************************                                0.033
  206.50226 |                                                              0.000
  215.48062 |******************************                                0.033
  224.45898 |******************************                                0.033
  233.43734 |                                                              0.000
  242.41570 |******************************                                0.033
  251.39405 |************************************************************  0.067
  260.37241 |                                                              0.000
  269.35077 |******************************                                0.033
  278.32913 |                                                              0.000
  287.30749 |                                                              0.000
  296.28585 |******************************                                0.033
  305.26421 |                                                              0.000
  314.24257 |                                                              0.000
  323.22093 |************************************************************  0.067
  332.19929 |                                                              0.000
  341.17765 |******************************                                0.033
  350.15600 |                                                              0.000
  359.13436 |                                                              0.000
  368.11272 |******************************                                0.033
  377.09108 |                                                              0.000
  386.06944 |                                                              0.000
  395.04780 |******************************                                0.033
  404.02616 |******************************                                0.033
  413.00452 |                                                              0.000
  421.98288 |                                                              0.000
  430.96124 |******************************                                0.033
  439.93960 |******************************                                0.033
  448.91795 |                                                              0.000
  457.89631 |******************************                                0.033
  466.87467 |                                                              0.000
  475.85303 |                                                              0.000
  484.83139 |                                                              0.000
  493.80975 |******************************                                0.033
  502.78811 |                                                              0.000
  511.76647 |                                                              0.000
  520.74483 |                                                              0.000
  529.72319 |                                                              0.000
  538.70155 |                                                              0.000
  547.67990 |                                                              0.000
  556.65826 |                                                              0.000
  565.63662 |******************************                                0.033
--------------------------------------------------------------------------------



  XYZ File written as 004/2/sp_mod_60/sp_mod_60_eig.xyz


  Time to end of properties =       0.0121 seconds


  Peak dynamic memory used =       0.64 MB 


  Timing analysis for GULP :

--------------------------------------------------------------------------------
  Task / Subroutine                                          Time (Seconds)
--------------------------------------------------------------------------------
  Calculation of phonons                                          0.0037
--------------------------------------------------------------------------------
  Total CPU time                                                  0.0121
--------------------------------------------------------------------------------


  Job Finished at 10:33.06 17th May        2022                               

