********************************************************************************
*                       GENERAL UTILITY LATTICE PROGRAM                        *
*                                 Julian Gale                                  *
*                       Curtin Institute for Computation                       *
*                           Department of Chemistry                            *
*                    Curtin University, Western Australia                      *
********************************************************************************
* Version = 5.1.1 * Last modified =  24th November 2018                        *
********************************************************************************
*  optimise     - perform optimisation run                                     *
*  conp         - constant pressure calculation                                *
*  shell        - only shells and radii to be optimised                        *
*  phonon       - calculate phonons for final geometry                         *
*  eigenvectors - output phonon eigenvectors                                   *
********************************************************************************

  Job Started  at 14:38.54 25th May        2022                               

  Number of CPUs =     1

  Host name      = login03                                 


  Total number of configurations input =      1

********************************************************************************
*  Input for Configuration =   1                                               *
********************************************************************************

  Formula = Al3F9                                                       

  Number of irreducible atoms/shells =      21


  Total number atoms/shells =      21

  Dimensionality = 0               :  Cluster


  Charge on cluster =  -0.000000


  Initial cluster dipoles : x =      0.350636 e.Angs
                            y =     -0.001895 e.Angs
                            z =      0.142415 e.Angs

  Temperature of configuration =  0.000     K 

  Symmetry number =      1

  Cartesian coordinates of cluster :

--------------------------------------------------------------------------------
   No.  Atomic       x           y          z         Charge      Occupancy
        Label      (Angs)      (Angs)     (Angs)        (e)         (Frac)  
--------------------------------------------------------------------------------
      1 Al    c      0.2568     -0.6005      1.7269     3.00000    1.000000    
      2 Al    c      2.4224     -1.7484     -0.3872     3.00000    1.000000    
      3 Al    c     -0.7852     -1.8685     -1.0980     3.00000    1.000000    
      4 F     c      3.4582     -0.4989     -1.2393     0.59000    1.000000    
      5 F     c     -1.8880     -0.5628     -1.7704     0.59000    1.000000    
      6 F     c      2.6755     -3.5566     -0.5746     0.59000    1.000000    
      7 F     c     -1.3085     -3.6208     -1.0074     0.59000    1.000000    
      8 F     c      1.8572     -1.4603      1.3214     0.59000    1.000000    
      9 F     c      0.9422     -1.5071     -1.4732     0.59000    1.000000    
     10 F     c      0.1736     -1.1715      3.4527     0.59000    1.000000    
     11 F     c      0.3896      1.1349      1.1962     0.59000    1.000000    
     12 F     c     -0.9685     -1.4070      0.6770     0.59000    1.000000    
     13 F     s      3.4582 *   -0.4989 *   -1.2393 *  -1.59000    1.000000    
     14 F     s     -1.8880 *   -0.5628 *   -1.7704 *  -1.59000    1.000000    
     15 F     s      2.6755 *   -3.5566 *   -0.5746 *  -1.59000    1.000000    
     16 F     s     -1.3085 *   -3.6208 *   -1.0074 *  -1.59000    1.000000    
     17 F     s      1.8572 *   -1.4603 *    1.3214 *  -1.59000    1.000000    
     18 F     s      0.9422 *   -1.5071 *   -1.4732 *  -1.59000    1.000000    
     19 F     s      0.1736 *   -1.1715 *    3.4527 *  -1.59000    1.000000    
     20 F     s      0.3896 *    1.1349 *    1.1962 *  -1.59000    1.000000    
     21 F     s     -0.9685 *   -1.4070 *    0.6770 *  -1.59000    1.000000    
--------------------------------------------------------------------------------


  Brillouin zone sampling points :

--------------------------------------------------------------------------------
  Point number          x          y          z            Weight
--------------------------------------------------------------------------------
        1           0.000000   0.000000   0.000000     1.00000000
--------------------------------------------------------------------------------


********************************************************************************
*  General input information                                                   *
********************************************************************************

  Species output for all configurations : 

--------------------------------------------------------------------------------
  Species    Type    Atomic    Atomic    Charge       Radii (Angs)     Library
                     Number     Mass       (e)     Cova   Ionic  VDW   Symbol
--------------------------------------------------------------------------------
    Al       Core       13      26.98   3.000000   1.350  0.000  2.050          
    F        Core        9      19.00   0.590000   0.710  0.000  1.300          
    F        Shell       9       0.00  -1.590000   0.710  0.000  1.300          
--------------------------------------------------------------------------------


  Accuracy factor for short range sums = 12.000

  Time limit = Infinity

  Maximum range for interatomic potentials =    100000.000000 Angstroms

  General interatomic potentials :

--------------------------------------------------------------------------------
Atom  Types   Potential      Parameter       Value         Units   Cutoffs(Ang)
  1     2                                                            Min /  Max 
--------------------------------------------------------------------------------
Al   c F    s Buckingham    Buckingham A     3760.0008    eV        0.000 10.000
                            Buckingham rho  0.22200000    Ang       
                            Buckingham C     0.0000000    eV*Ang^6  
--------------------------------------------------------------------------------
F    s F    s Buck 4 range  Buck4 A          1127.7000    eV        0.000 12.000
                            Buck4 rho       0.27530000    Ang       
                            Buck4 C          15.830000    eV*Ang^6  
                            Buck4 minimum    2.7900000    Ang       
--------------------------------------------------------------------------------
F    c F    s Spring (c-s)  Spring k 2       20.770000    eV*Ang^-2 0.000  0.800
                            Spring k 4       0.0000000    eV*Ang^-4 
--------------------------------------------------------------------------------

********************************************************************************
*  Output for configuration   1                                                *
********************************************************************************


  Components of energy : 

--------------------------------------------------------------------------------
  Interatomic potentials     =          11.46463588 eV    
  Monopole - monopole (real) =        -181.45682225 eV    
--------------------------------------------------------------------------------
  Total lattice energy       =        -169.99218637 eV    
--------------------------------------------------------------------------------
  Total lattice energy       =          -16401.6474 kJ/mol
--------------------------------------------------------------------------------


  Number of variables =       27

  Maximum number of calculations  =          2000
  Maximum Hessian update interval =            10
  Maximum step size               =   1.000000000
  Maximum parameter tolerance     =   0.000001000
  Maximum function  tolerance     =   0.000010000
  Maximum gradient  tolerance     =   0.000000010
  Maximum gradient  component     =   0.010000000

  Symmetry not applied to optimisation

  Newton-Raphson optimiser to be used

  BFGS hessian update to be used

  Lower half triangular hessian to be used

  Minimiser to switch to RFO
  When gradient norm is less than     0.010000

  Shell only optimisation

  Start of cluster optimisation :

  Cycle:      0 Energy:      -169.992186  Gnorm:      1.351565  CPU:    0.004
  ** Hessian calculated **
  Cycle:      1 Energy:      -185.731363  Gnorm:      0.421661  CPU:    0.006
  ** Hessian calculated **
  Cycle:      2 Energy:      -186.908153  Gnorm:      0.010812  CPU:    0.008
  Cycle:      3 Energy:      -186.909145  Gnorm:      0.001454  CPU:    0.009
  ** Hessian has required structure
  Cycle:      4 Energy:      -186.909153  Gnorm:      0.000694  CPU:    0.011
  ** Hessian has required structure
  Cycle:      5 Energy:      -186.909154  Gnorm:      0.000675  CPU:    0.013
  ** Hessian has required structure
  Cycle:      6 Energy:      -186.909154  Gnorm:      0.000657  CPU:    0.014
  ** Hessian has required structure
  Cycle:      7 Energy:      -186.909154  Gnorm:      0.000650  CPU:    0.016
  ** Hessian has required structure
  Cycle:      8 Energy:      -186.909154  Gnorm:      0.000649  CPU:    0.017
  ** Hessian has required structure
  Cycle:      9 Energy:      -186.909154  Gnorm:      0.000650  CPU:    0.019
  ** Hessian has required structure
  Cycle:     10 Energy:      -186.909154  Gnorm:      0.000649  CPU:    0.020
  ** Hessian has required structure
  Cycle:     11 Energy:      -186.909154  Gnorm:      0.000646  CPU:    0.022
  ** Hessian has required structure
  Cycle:     12 Energy:      -186.909157  Gnorm:      0.000000  CPU:    0.023
  ** Hessian has required structure
  Cycle:     13 Energy:      -186.909157  Gnorm:      0.000000  CPU:    0.025
  ** Hessian has required structure
  Cycle:     14 Energy:      -186.909157  Gnorm:      0.000000  CPU:    0.027
  ** Hessian calculated **

  XYZ File written as 002/3/sp_mod_40/sp_mod_40_eig.xyz



  **** Optimisation achieved ****


  Final energy =    -186.90915723 eV
  Final Gnorm  =       0.00000008

  Components of energy : 

--------------------------------------------------------------------------------
  Interatomic potentials     =          37.80752392 eV    
  Monopole - monopole (real) =        -224.71668115 eV    
--------------------------------------------------------------------------------
  Total lattice energy       =        -186.90915723 eV    
--------------------------------------------------------------------------------
  Total lattice energy       =          -18033.8765 kJ/mol
--------------------------------------------------------------------------------

  Final cartesian coordinates of atoms :

--------------------------------------------------------------------------------
   No.  Atomic        x           y          z          Radius
        Label       (Angs)      (Angs)     (Angs)       (Angs) 
--------------------------------------------------------------------------------
     1  Al    c     0.256825   -0.600507    1.726894    0.000000
     2  Al    c     2.422410   -1.748368   -0.387204    0.000000
     3  Al    c    -0.785249   -1.868467   -1.098049    0.000000
     4  F     c     3.458223   -0.498942   -1.239263    0.000000
     5  F     c    -1.887976   -0.562839   -1.770365    0.000000
     6  F     c     2.675513   -3.556587   -0.574572    0.000000
     7  F     c    -1.308512   -3.620837   -1.007425    0.000000
     8  F     c     1.857215   -1.460303    1.321447    0.000000
     9  F     c     0.942177   -1.507075   -1.473195    0.000000
    10  F     c     0.173571   -1.171531    3.452688    0.000000
    11  F     c     0.389629    1.134942    1.196165    0.000000
    12  F     c    -0.968521   -1.406961    0.677028    0.000000
    13  F     s     3.301758   -0.691448   -1.078087    0.000000
    14  F     s    -1.698751   -0.770180   -1.688713    0.000000
    15  F     s     2.645188   -3.272198   -0.523618    0.000000
    16  F     s    -1.206636   -3.348966   -1.033933    0.000000
    17  F     s     1.741340   -1.379085    1.113359    0.000000
    18  F     s     0.865164   -1.587887   -1.274239    0.000000
    19  F     s     0.172831   -1.084093    3.181811    0.000000
    20  F     s     0.374162    0.866754    1.272858    0.000000
    21  F     s    -0.756814   -1.364513    0.618413    0.000000
--------------------------------------------------------------------------------


  Final Cartesian derivatives :

--------------------------------------------------------------------------------
   No.  Atomic          x             y             z           Radius
        Label       (eV/Angs)     (eV/Angs)    (eV/Angs)      (eV/Angs)
--------------------------------------------------------------------------------
      1 Al    c       0.000000      0.000000      0.000000      0.000000
      2 Al    c       0.000000      0.000000      0.000000      0.000000
      3 Al    c       0.000000      0.000000      0.000000      0.000000
      4 F     c       0.000000      0.000000      0.000000      0.000000
      5 F     c       0.000000      0.000000      0.000000      0.000000
      6 F     c       0.000000      0.000000      0.000000      0.000000
      7 F     c       0.000000      0.000000      0.000000      0.000000
      8 F     c       0.000000      0.000000      0.000000      0.000000
      9 F     c       0.000000      0.000000      0.000000      0.000000
     10 F     c       0.000000      0.000000      0.000000      0.000000
     11 F     c       0.000000      0.000000      0.000000      0.000000
     12 F     c       0.000000      0.000000      0.000000      0.000000
     13 F     s      -0.000001     -0.000001      0.000001      0.000000
     14 F     s       0.000001     -0.000001      0.000000      0.000000
     15 F     s       0.000000      0.000000      0.000000      0.000000
     16 F     s       0.000000      0.000001     -0.000000      0.000000
     17 F     s       0.000000      0.000000      0.000000      0.000000
     18 F     s      -0.000000     -0.000000     -0.000000      0.000000
     19 F     s      -0.000000      0.000000     -0.000001      0.000000
     20 F     s      -0.000000     -0.000000      0.000000      0.000000
     21 F     s       0.000000     -0.000000     -0.000000      0.000000
--------------------------------------------------------------------------------
  Maximum abs         0.000001      0.000001      0.000001      0.000000
--------------------------------------------------------------------------------


  Born effective charge tensors : 

-------------------------------------------------------------------------------
  Atom             x           y             z
-------------------------------------------------------------------------------
    1 Al    x       1.4850     -0.1749     -0.0966
            y      -0.1812      0.7584      0.4371
            z      -0.1106      0.4179      0.8456
-------------------------------------------------------------------------------
    2 Al    x       1.4945     -0.1693      0.2910
            y      -0.1834      0.4899      0.1220
            z       0.2637      0.1345      1.1987
-------------------------------------------------------------------------------
    3 Al    x       1.0493      0.1007     -0.0274
            y       0.1082      0.5270      0.3108
            z      -0.0511      0.3141      1.5380
-------------------------------------------------------------------------------
    4 F     x      -0.3977      0.2544     -0.1568
            y       0.2139     -0.2504     -0.1959
            z      -0.1323     -0.1823     -0.4246
-------------------------------------------------------------------------------
    5 F     x      -0.3686     -0.2547      0.0957
            y      -0.2303     -0.2379     -0.1451
            z       0.1057     -0.1895     -0.4895
-------------------------------------------------------------------------------
    6 F     x      -0.5941     -0.0840     -0.0012
            y      -0.0301      0.0164      0.0391
            z      -0.0090      0.0374     -0.5320
-------------------------------------------------------------------------------
    7 F     x      -0.5263      0.1455     -0.0266
            y       0.1340     -0.0016     -0.0685
            z      -0.0243     -0.0227     -0.5594
-------------------------------------------------------------------------------
    8 F     x      -0.4067      0.0405     -0.0321
            y       0.0267     -0.2778     -0.0109
            z      -0.0213     -0.0339     -0.2520
-------------------------------------------------------------------------------
    9 F     x      -0.3045      0.0375     -0.0725
            y       0.0247     -0.2601     -0.0389
            z      -0.0552     -0.0356     -0.3958
-------------------------------------------------------------------------------
   10 F     x      -0.5546      0.0246     -0.0290
            y       0.0096     -0.4739     -0.1820
            z      -0.0152     -0.2244     -0.0339
-------------------------------------------------------------------------------
   11 F     x      -0.5539      0.0509      0.0065
            y       0.0672     -0.0373     -0.2365
            z      -0.0059     -0.1783     -0.5275
-------------------------------------------------------------------------------
   12 F     x      -0.3224      0.0288      0.0490
            y       0.0407     -0.2527     -0.0313
            z       0.0555     -0.0372     -0.3677
-------------------------------------------------------------------------------




  Moment of inertia tensor (10^-46 x kgm^2): 

-------------------------------------------------------------------------------
                x           y           z           Principal axis system
-------------------------------------------------------------------------------
       x        154.02        2.67       -0.87          153.783328
       y          2.67      202.36      -24.17          155.725815
       z         -0.87      -24.17      168.11          214.981201
-------------------------------------------------------------------------------
  Centre of mass (Ang) =     0.604885    -1.405638     0.069807
-------------------------------------------------------------------------------


  Vibrational Frequency Calculation : 

--------------------------------------------------------------------------------

  Frequencies (cm-1) and Eigenvectors : 

  Frequency      -2.8369   -0.0000   -0.0000    0.0000   20.7230   22.1773
  IR Intensity    0.0001    0.0000    0.0000    0.0000    0.0004    0.0000
     in X         0.0000    0.0000    0.0000    0.0000    0.0001    0.0000
     in Y         0.0000    0.0000    0.0000    0.0000    0.0000    0.0000
     in Z         0.0001    0.0000    0.0000    0.0000    0.0004    0.0000
  Raman Intsty    0.0472    0.0000    0.0000    0.0000    0.0020    0.0003

     1 x      -0.251519 -0.194075  0.222019  0.141886  0.048779  0.086733
     1 y      -0.103630  0.260770  0.187075  0.063958  0.013695 -0.252625
     1 z       0.018801  0.037720 -0.150995  0.287866  0.035392  0.148057
     2 x       0.083694 -0.194075  0.222019  0.141886 -0.032901 -0.026827
     2 y       0.119907  0.260770  0.187075  0.063958 -0.201526  0.068750
     2 z       0.186278  0.037720 -0.150995  0.287866  0.021723 -0.158043
     3 x       0.172819 -0.194075  0.222019  0.141886 -0.020412 -0.058740
     3 y      -0.014356  0.260770  0.187075  0.063958  0.172939  0.189135
     3 z      -0.217979  0.037720 -0.150995  0.287866 -0.075113  0.003812
     4 x       0.091913 -0.162864  0.186314  0.119068  0.058368 -0.000734
     4 y       0.136616  0.218834  0.156990  0.053672 -0.194974  0.061040
     4 z       0.237386  0.031654 -0.126712  0.241572  0.086416 -0.100497
     5 x       0.195798 -0.162864  0.186314  0.119068  0.074926 -0.048993
     5 y       0.002861  0.218834  0.156990  0.053672  0.109779  0.288523
     5 z      -0.235497  0.031654 -0.126712  0.241572 -0.272937  0.245844
     6 x       0.130736 -0.162864  0.186314  0.119068 -0.109382 -0.101749
     6 y       0.104956  0.218834  0.156990  0.053672 -0.176755  0.059083
     6 z       0.201157  0.031654 -0.126712  0.241572 -0.019956 -0.277954
     7 x       0.169171 -0.162864  0.186314  0.119068 -0.108469 -0.087905
     7 y      -0.022788  0.218834  0.156990  0.053672  0.180959  0.158966
     7 z      -0.270196  0.031654 -0.126712  0.241572  0.163687 -0.249596
     8 x      -0.092111 -0.162864  0.186314  0.119068 -0.089847  0.103397
     8 y       0.109466  0.218834  0.156990  0.053672 -0.205695 -0.051088
     8 z       0.094940  0.031654 -0.126712  0.241572 -0.000131 -0.073647
     9 x       0.173214 -0.162864  0.186314  0.119068  0.030371 -0.067441
     9 y       0.035741  0.218834  0.156990  0.053672 -0.061193  0.211991
     9 z       0.000399  0.031654 -0.126712  0.241572 -0.035381 -0.032577
    10 x      -0.327649 -0.162864  0.186314  0.119068 -0.142781  0.193588
    10 y      -0.283776  0.218834  0.156990  0.053672 -0.202887 -0.448504
    10 z      -0.055175  0.031654 -0.126712  0.241572 -0.050797  0.053062
    11 x      -0.309151 -0.162864  0.186314  0.119068  0.387165 -0.054359
    11 y      -0.014585  0.218834  0.156990  0.053672  0.072980 -0.133361
    11 z       0.232337  0.031654 -0.126712  0.241572  0.320767  0.351698
    12 x      -0.037871 -0.162864  0.186314  0.119068 -0.094948  0.062808
    12 y      -0.070779  0.218834  0.156990  0.053672  0.495532 -0.152919
    12 z      -0.189980  0.031654 -0.126712  0.241572 -0.170222  0.091024


  Frequency      27.6186   51.6252   54.5146  127.0652  144.7408  150.5234
  IR Intensity    0.0005    0.0015    0.0012    0.0034    0.0056    0.0089
     in X         0.0000    0.0006    0.0000    0.0004    0.0006    0.0065
     in Y         0.0001    0.0002    0.0010    0.0030    0.0003    0.0007
     in Z         0.0005    0.0007    0.0001    0.0001    0.0047    0.0017
  Raman Intsty    0.0028    0.0189    0.0069    0.0128    0.0004    0.0350

     1 x       0.030842 -0.018012 -0.009252  0.039571 -0.036135 -0.127079
     1 y       0.007388 -0.138408  0.020797 -0.005420 -0.132983 -0.095857
     1 z       0.049328  0.001671  0.003139 -0.007000 -0.018136  0.045059
     2 x       0.008489  0.001262 -0.048227  0.017614  0.100016  0.029179
     2 y       0.182384  0.107312  0.026017  0.095718  0.167607 -0.036526
     2 z      -0.147824  0.036060 -0.025597  0.015164  0.012354  0.019409
     3 x      -0.035579 -0.005722  0.073216 -0.026064 -0.003011 -0.024814
     3 y      -0.187982  0.016186 -0.036523  0.018005 -0.031061  0.179068
     3 z       0.076489  0.004457  0.001811  0.002977  0.115212  0.020260
     4 x      -0.216464 -0.100239  0.243457 -0.131242  0.121121 -0.074162
     4 y       0.295717  0.361880 -0.178919 -0.085187 -0.087177 -0.170605
     4 z      -0.190859  0.312931  0.033843 -0.430098 -0.305339 -0.322522
     5 x      -0.141384 -0.083469 -0.234235 -0.217161  0.335708 -0.052422
     5 y      -0.337884 -0.057528 -0.299041 -0.009817  0.037936  0.085623
     5 z      -0.098530 -0.004557 -0.034195  0.257639 -0.308191 -0.069488
     6 x       0.273078  0.193187 -0.454231  0.090777 -0.020708  0.303342
     6 y       0.190297  0.156376 -0.032524  0.064770  0.132593 -0.011338
     6 z      -0.095660 -0.362604 -0.113307  0.325237 -0.020243  0.243347
     7 x       0.082157  0.140063  0.479333  0.144015 -0.252265  0.349912
     7 y      -0.177502 -0.030392 -0.147666 -0.041674  0.056635  0.044676
     7 z       0.361974 -0.028651  0.090966 -0.218212  0.362305 -0.114887
     8 x       0.029847 -0.143248  0.019350  0.104535  0.101792 -0.237158
     8 y       0.114761 -0.447385  0.065620  0.064517  0.053219 -0.249478
     8 z      -0.118977  0.096568 -0.003485  0.064125  0.055839 -0.037469
     9 x      -0.069427 -0.021642 -0.021784 -0.017406 -0.050694 -0.001879
     9 y      -0.137862  0.167733  0.504107  0.027670  0.286168  0.083019
     9 z      -0.078888  0.076011  0.025277  0.053401  0.272186  0.113873
    10 x       0.097625 -0.168006 -0.006535 -0.496436 -0.132549  0.373820
    10 y      -0.250777  0.074649 -0.023507 -0.098768 -0.199170  0.062519
    10 z      -0.038612  0.054753 -0.010733 -0.068475 -0.048847  0.117143
    11 x      -0.046995  0.325003 -0.026501  0.433675  0.000453 -0.183219
    11 y       0.097356 -0.202246  0.036413 -0.032333 -0.188076 -0.102336
    11 z       0.328258 -0.206102  0.060119 -0.003051 -0.252888 -0.044267
    12 x      -0.012907 -0.114871 -0.017607  0.052157 -0.175395 -0.332004
    12 y       0.203761 -0.005318  0.063255 -0.018235 -0.096373  0.202288
    12 z      -0.042481  0.011378 -0.023880  0.006157  0.114779  0.013306


  Frequency     161.8712  164.4115  178.7045  191.5026  200.1468  219.3218
  IR Intensity    0.0002    0.0036    0.0025    0.0090    0.0078    0.0172
     in X         0.0001    0.0001    0.0003    0.0004    0.0077    0.0030
     in Y         0.0001    0.0034    0.0012    0.0039    0.0000    0.0002
     in Z         0.0001    0.0001    0.0010    0.0047    0.0000    0.0140
  Raman Intsty    0.1311    0.0155    0.0299    0.0190    0.0122    0.0000

     1 x      -0.102872 -0.043258 -0.030337  0.092655  0.171787  0.048956
     1 y       0.091374 -0.052700 -0.009312  0.122518 -0.131105  0.192965
     1 z      -0.030206  0.159846  0.040337 -0.105259  0.111351 -0.204632
     2 x       0.075031 -0.117106  0.115083  0.009836 -0.019166  0.013364
     2 y      -0.091450  0.053739  0.034353 -0.266092 -0.154059 -0.145078
     2 z      -0.115073 -0.073471  0.053828  0.114259  0.041236 -0.005578
     3 x       0.047058  0.136086 -0.050641 -0.068528 -0.012240  0.058270
     3 y       0.037488 -0.093147 -0.112344 -0.035579  0.299498 -0.043751
     3 z       0.133670 -0.026540 -0.037261  0.110097 -0.146683 -0.065020
     4 x       0.271486 -0.273804  0.253828 -0.438548 -0.184497 -0.164639
     4 y      -0.218398  0.045792 -0.211919  0.042413 -0.061543  0.028286
     4 z      -0.053997 -0.288067 -0.131170 -0.026567 -0.053233  0.018490
     5 x       0.091947  0.411058 -0.152497  0.223397 -0.327421 -0.017154
     5 y       0.197610  0.094727 -0.257857  0.098366 -0.037972 -0.030817
     5 z       0.345426 -0.139148 -0.159284 -0.100091 -0.220976  0.070006
     6 x       0.271721 -0.247178  0.238826  0.004810  0.170010  0.203199
     6 y      -0.024704  0.019053  0.080682 -0.200785 -0.099778 -0.129492
     6 z      -0.366510 -0.032885 -0.249499 -0.322184 -0.084988  0.223841
     7 x       0.188995  0.133352 -0.355195  0.229999  0.077745 -0.180823
     7 y      -0.005092 -0.082404 -0.022655 -0.130244  0.265551  0.036755
     7 z       0.248459  0.060855 -0.321486 -0.221709  0.247112  0.153953
     8 x      -0.167165 -0.131295  0.009034  0.202695  0.264201 -0.199285
     8 y      -0.018154 -0.174892 -0.007557  0.167328 -0.018631 -0.328591
     8 z      -0.187312 -0.017161  0.045969  0.125704  0.150488 -0.048484
     9 x       0.039999  0.042458 -0.037569 -0.070850  0.070282  0.010825
     9 y      -0.104563  0.032717  0.101066  0.024724  0.027578  0.480181
     9 z      -0.073749 -0.236044  0.256628  0.405960 -0.041411  0.043378
    10 x      -0.405496 -0.114807 -0.028758 -0.043260 -0.228165  0.046309
    10 y       0.043557  0.368130  0.356857 -0.027624  0.096223 -0.070018
    10 z      -0.059783  0.275051  0.156909 -0.149068  0.152318 -0.278507
    11 x      -0.210820  0.056067  0.020146 -0.066545 -0.323410 -0.047287
    11 y       0.114688 -0.014090  0.080597  0.164141 -0.138916  0.283925
    11 z       0.063196  0.285157  0.354635  0.049705 -0.080225  0.139604
    12 x      -0.103566  0.153079  0.011543 -0.082168  0.313972  0.205155
    12 y      -0.029524 -0.179273 -0.015180  0.075167 -0.049594 -0.275156
    12 z       0.098103  0.020942 -0.020512  0.096330 -0.076121  0.005693


  Frequency     229.2041  235.9570  247.8625  260.4002  267.6873  319.3613
  IR Intensity    0.0324    0.0233    0.1250    0.0739    0.0473    0.0000
     in X         0.0308    0.0223    0.0000    0.0697    0.0236    0.0000
     in Y         0.0003    0.0008    0.0507    0.0001    0.0001    0.0000
     in Z         0.0013    0.0001    0.0742    0.0042    0.0236    0.0000
  Raman Intsty    0.0014    0.0177    0.0044    0.0121    0.2734    0.0051

     1 x      -0.022072  0.392158 -0.029415  0.043666  0.111489  0.073951
     1 y       0.010261 -0.034990 -0.340894 -0.080099 -0.031474 -0.046432
     1 z      -0.009692  0.042439 -0.193425 -0.206852 -0.201773 -0.200779
     2 x       0.163297  0.000748  0.067048  0.405039 -0.114632 -0.173074
     2 y       0.084381  0.019058 -0.126783  0.032749  0.216755  0.038970
     2 z       0.219964 -0.295569 -0.132656 -0.020685  0.029027  0.083517
     3 x       0.229503 -0.067380 -0.034920  0.098697 -0.327170  0.095670
     3 y      -0.162192 -0.071524 -0.125546  0.190594 -0.037117  0.021482
     3 z      -0.120813  0.286607 -0.209356  0.048144 -0.183392  0.113888
     4 x      -0.112117  0.133435 -0.040882  0.034568  0.215344 -0.042176
     4 y       0.009761  0.147632  0.140365  0.292342 -0.082707 -0.140534
     4 z      -0.241287  0.071260  0.135196 -0.113463 -0.006358  0.019315
     5 x       0.024741  0.136719  0.028995 -0.185758 -0.013948  0.029329
     5 y      -0.040213 -0.067894  0.176748 -0.105334  0.310183 -0.105159
     5 z       0.405176 -0.037483  0.247733 -0.059490 -0.052612  0.015040
     6 x      -0.216314 -0.040918  0.081509 -0.350596 -0.064201  0.083239
     6 y       0.057789 -0.042193 -0.151538 -0.090814  0.230946  0.100142
     6 z      -0.164997  0.244439  0.160823  0.056166  0.053088 -0.024183
     7 x      -0.198691 -0.067407 -0.056545  0.032964  0.202564 -0.050645
     7 y      -0.024772 -0.089187 -0.102617  0.212987 -0.183891  0.064115
     7 z       0.023296 -0.241254  0.198096  0.051128  0.146862 -0.041416
     8 x      -0.008170  0.131953  0.240460 -0.011834  0.124559  0.332555
     8 y      -0.230726 -0.292240  0.216732 -0.154924 -0.279383 -0.091700
     8 z       0.248171 -0.140728 -0.135494 -0.120860  0.255933  0.405909
     9 x       0.207101 -0.134764 -0.038523  0.172489 -0.231513  0.090140
     9 y      -0.004370  0.076471  0.234173 -0.288231 -0.235169  0.057628
     9 z       0.068088 -0.018903  0.067448  0.197528  0.197854 -0.499526
    10 x       0.030164 -0.261685 -0.012580 -0.053185  0.066627  0.024762
    10 y      -0.044875  0.040798  0.316423  0.129231  0.073087  0.077122
    10 z      -0.023934  0.028615  0.018932 -0.149975 -0.176933 -0.194600
    11 x      -0.245084 -0.334616  0.030325 -0.045630 -0.066933 -0.038651
    11 y      -0.005892 -0.006879 -0.228096  0.042749  0.085501  0.063705
    11 z      -0.122859 -0.051840  0.195396  0.190713  0.142386  0.129349
    12 x       0.076598  0.049374 -0.235993 -0.245323  0.161114 -0.424437
    12 y       0.363792  0.337707  0.104717 -0.208703 -0.095124 -0.042025
    12 z      -0.298258  0.106002 -0.250083  0.162025 -0.135832  0.194134


  Frequency     453.9649  487.2190  497.4483  580.1733  590.7992  614.8180
  IR Intensity    0.0003    0.0563    0.0386    0.0543    0.0595    0.0076
     in X         0.0003    0.0207    0.0212    0.0045    0.0545    0.0050
     in Y         0.0000    0.0031    0.0016    0.0024    0.0016    0.0001
     in Z         0.0000    0.0324    0.0157    0.0474    0.0034    0.0025
  Raman Intsty    4.7377    0.1329    0.0779    0.0143    0.0761    0.0017

     1 x       0.126373  0.164864 -0.440064  0.247126  0.275224 -0.379797
     1 y      -0.190054 -0.147720 -0.003826 -0.007346 -0.066220  0.138028
     1 z      -0.194236 -0.127335 -0.056239  0.009389 -0.045291  0.107837
     2 x      -0.338471  0.322167  0.073168 -0.212331  0.285474  0.155596
     2 y       0.079434 -0.004473 -0.046439  0.018464 -0.007435 -0.010872
     2 z       0.002448  0.383437 -0.141058 -0.150009  0.284546  0.097888
     3 x       0.189663 -0.235158 -0.058406  0.099310 -0.040883  0.041428
     3 y       0.092222  0.012553  0.099987 -0.068630 -0.044487 -0.073158
     3 z       0.209700  0.237486  0.429469 -0.360607 -0.144189 -0.309645
     4 x      -0.166155 -0.033143  0.166555  0.200608 -0.045592 -0.059106
     4 y      -0.248931 -0.010881  0.206147  0.217311 -0.055246 -0.067702
     4 z       0.134309 -0.039025 -0.109701 -0.139834  0.021049  0.055702
     5 x       0.147752 -0.098004  0.113659  0.065458  0.184659  0.065540
     5 y      -0.237382  0.167101 -0.128152 -0.091760 -0.192952 -0.073315
     5 z       0.109947 -0.122108  0.032511  0.069679  0.116823  0.037325
     6 x      -0.012808 -0.018168  0.041788  0.061975 -0.007645 -0.014252
     6 y       0.289390  0.001574 -0.267846 -0.288968  0.041901  0.074935
     6 z       0.006016 -0.052248 -0.004858 -0.027854 -0.009831  0.021992
     7 x       0.050596 -0.033970  0.068789  0.022673  0.099947  0.038767
     7 y       0.299793 -0.223616  0.191182  0.120014  0.299069  0.113471
     7 z      -0.022935 -0.021026 -0.038714  0.012704 -0.002385 -0.007266
     8 x      -0.163757 -0.332597  0.065856 -0.380573 -0.077580  0.273427
     8 y       0.091313  0.179957 -0.009528  0.202799  0.037436 -0.151887
     8 z      -0.183311 -0.001234  0.305064  0.386322 -0.070055 -0.200361
     9 x       0.008939  0.024462 -0.273139 -0.110081 -0.594929 -0.269229
     9 y      -0.094490  0.108598 -0.002979 -0.038862 -0.005532 -0.010322
     9 z       0.230764 -0.304703 -0.080944  0.070991 -0.161751 -0.048999
    10 x       0.021929  0.007557  0.059752 -0.002148 -0.032156  0.015118
    10 y       0.120910  0.092193  0.047593  0.023941 -0.064819  0.075240
    10 z      -0.278926 -0.233180 -0.117781 -0.116490  0.213655 -0.256857
    11 x      -0.014538 -0.025674  0.039675 -0.020559 -0.003653 -0.020464
    11 y      -0.229824 -0.271536 -0.083972 -0.166846  0.184157 -0.241262
    11 z       0.101034  0.076333  0.038163  0.037628 -0.054033  0.057230
    12 x       0.154774  0.209397  0.223871  0.002843 -0.142480  0.187998
    12 y       0.031144  0.123009 -0.011695  0.090905 -0.103231  0.216496
    12 z      -0.118244  0.109013 -0.300405  0.304136 -0.166756  0.465070


  Frequency     710.7750  717.4324  741.8612  796.0633  803.1657  815.7749
  IR Intensity    0.0604    0.0433    0.0076    0.0019    0.0043    0.0016
     in X         0.0028    0.0395    0.0073    0.0000    0.0001    0.0002
     in Y         0.0184    0.0000    0.0000    0.0019    0.0027    0.0006
     in Z         0.0392    0.0037    0.0002    0.0000    0.0014    0.0009
  Raman Intsty    0.0015    0.1286    0.0044    0.0000    0.0004    0.0225

     1 x      -0.208802 -0.048629  0.080136 -0.015351  0.006216  0.004813
     1 y      -0.394713 -0.166673  0.296536 -0.067160  0.077048  0.447733
     1 z      -0.389684 -0.100070  0.160746  0.034755 -0.050049 -0.587940
     2 x       0.146248 -0.333526  0.158345 -0.021109  0.239979 -0.093599
     2 y      -0.137294  0.227225 -0.210419 -0.106138  0.641431 -0.039291
     2 z      -0.241512  0.419157 -0.171322  0.037855 -0.238734  0.092228
     3 x      -0.156327 -0.366472 -0.589549 -0.060550 -0.111317  0.070791
     3 y      -0.042781 -0.050238 -0.077406  0.706170  0.104835  0.071373
     3 z      -0.046019 -0.032997 -0.097232 -0.162122 -0.042819  0.023532
     4 x      -0.072332  0.155910 -0.020310  0.041564 -0.273758  0.048057
     4 y      -0.074371  0.164188 -0.007488  0.052773 -0.342730  0.053173
     4 z       0.066504 -0.133454  0.017770 -0.035481  0.226156 -0.037859
     5 x       0.056383  0.142961  0.206600  0.249548  0.066372 -0.001854
     5 y      -0.063327 -0.148330 -0.212001 -0.319788 -0.078243 -0.005819
     5 z       0.030830  0.075784  0.120270  0.158193  0.041003  0.002996
     6 x      -0.036092  0.057843 -0.045138 -0.007292  0.043793  0.003114
     6 y       0.206764 -0.337558  0.226682  0.065553 -0.402601  0.012668
     6 z       0.032644 -0.050696  0.026569  0.007905 -0.029162 -0.000644
     7 x       0.030055  0.061750  0.086241 -0.131367 -0.010658 -0.018545
     7 y       0.093493  0.161550  0.215290 -0.475408 -0.053642 -0.055613
     7 z      -0.004220 -0.009194 -0.005597  0.028835  0.006216  0.000915
     8 x      -0.103471  0.137103 -0.031093  0.004188 -0.031198  0.041878
     8 y       0.068499 -0.071415  0.011274  0.002199 -0.001789 -0.033329
     8 z       0.178701 -0.291527  0.101612 -0.007243  0.071566 -0.041467
     9 x       0.125739  0.261531  0.326341 -0.057508  0.052453 -0.031266
     9 y       0.017635  0.026728  0.057672 -0.017105 -0.011561 -0.009094
     9 z      -0.001036 -0.015469 -0.022188  0.003099  0.007997  0.004934
    10 x      -0.004807  0.001029  0.001679  0.002941 -0.002704 -0.021300
    10 y      -0.075018 -0.007595  0.006223  0.014705 -0.019070 -0.160585
    10 z       0.282254  0.048609 -0.054349 -0.038647  0.050586  0.458493
    11 x       0.034056  0.009575 -0.014073  0.002662 -0.003747 -0.030744
    11 y       0.325588  0.150271 -0.227710  0.050581 -0.064482 -0.387218
    11 z      -0.083357 -0.035722  0.055982 -0.015450  0.020990  0.135304
    12 x       0.231296  0.064390 -0.091901  0.010864 -0.001277  0.032105
    12 y       0.185677  0.049870 -0.080322 -0.008500 -0.006975  0.014053
    12 z       0.304677  0.070753 -0.111601  0.005455 -0.000203  0.039996




--------------------------------------------------------------------------------
  Vibrational properties (for cluster):  Temperature  =       0.000 K
--------------------------------------------------------------------------------
  Zero point energy            =        0.684522 eV
--------------------------------------------------------------------------------

  Phonon density of states : 

--------------------------------------------------------------------------------
 Frequency (cm-1) Density of States                                             
--------------------------------------------------------------------------------
    0.00000 |******************************                                0.030
   12.74648 |************************************************************  0.061
   25.49297 |******************************                                0.030
   38.23945 |                                                              0.000
   50.98593 |************************************************************  0.061
   63.73242 |                                                              0.000
   76.47890 |                                                              0.000
   89.22538 |                                                              0.000
  101.97186 |                                                              0.000
  114.71835 |******************************                                0.030
  127.46483 |                                                              0.000
  140.21131 |************************************************************  0.061
  152.95780 |************************************************************  0.061
  165.70428 |                                                              0.000
  178.45076 |******************************                                0.030
  191.19725 |************************************************************  0.061
  203.94373 |                                                              0.000
  216.69021 |************************************************************  0.061
  229.43670 |******************************                                0.030
  242.18318 |******************************                                0.030
  254.92966 |******************************                                0.030
  267.67615 |******************************                                0.030
  280.42263 |                                                              0.000
  293.16911 |                                                              0.000
  305.91559 |                                                              0.000
  318.66208 |******************************                                0.030
  331.40856 |                                                              0.000
  344.15504 |                                                              0.000
  356.90153 |                                                              0.000
  369.64801 |                                                              0.000
  382.39449 |                                                              0.000
  395.14098 |                                                              0.000
  407.88746 |                                                              0.000
  420.63394 |                                                              0.000
  433.38043 |                                                              0.000
  446.12691 |******************************                                0.030
  458.87339 |                                                              0.000
  471.61987 |                                                              0.000
  484.36636 |******************************                                0.030
  497.11284 |******************************                                0.030
  509.85932 |                                                              0.000
  522.60581 |                                                              0.000
  535.35229 |                                                              0.000
  548.09877 |                                                              0.000
  560.84526 |                                                              0.000
  573.59174 |******************************                                0.030
  586.33822 |******************************                                0.030
  599.08471 |                                                              0.000
  611.83119 |******************************                                0.030
  624.57767 |                                                              0.000
  637.32416 |                                                              0.000
  650.07064 |                                                              0.000
  662.81712 |                                                              0.000
  675.56360 |                                                              0.000
  688.31009 |                                                              0.000
  701.05657 |******************************                                0.030
  713.80305 |******************************                                0.030
  726.54954 |                                                              0.000
  739.29602 |******************************                                0.030
  752.04250 |                                                              0.000
  764.78899 |                                                              0.000
  777.53547 |                                                              0.000
  790.28195 |******************************                                0.030
  803.02844 |************************************************************  0.061
--------------------------------------------------------------------------------



  Time to end of optimisation =       0.0368 seconds


  Peak dynamic memory used =       0.65 MB 


  Timing analysis for GULP :

--------------------------------------------------------------------------------
  Task / Subroutine                                          Time (Seconds)
--------------------------------------------------------------------------------
  Calculation of real space energy and derivatives                0.0025
  Calculation of phonons                                          0.0016
  Calculation and manipulation of Hessian matrix                  0.0014
--------------------------------------------------------------------------------
  Total CPU time                                                  0.0368
--------------------------------------------------------------------------------


  Job Finished at 14:38.55 25th May        2022                               

