********************************************************************************
*                       GENERAL UTILITY LATTICE PROGRAM                        *
*                                 Julian Gale                                  *
*                       Curtin Institute for Computation                       *
*                           Department of Chemistry                            *
*                    Curtin University, Western Australia                      *
********************************************************************************
* Version = 5.1.1 * Last modified =  11th January 2019                         *
********************************************************************************
*  single       - perform a single point run                                   *
*  phonon       - calculate phonons for final geometry                         *
*  eigenvectors - output phonon eigenvectors                                   *
********************************************************************************

  Job Started  at 10:33.08 17th May        2022                               

  Number of CPUs =     1

  Host name      = login04                                 


  Total number of configurations input =      1

********************************************************************************
*  Input for Configuration =   1                                               *
********************************************************************************

  Formula = Al3F9                                                       

  Number of irreducible atoms/shells =      21


  Total number atoms/shells =      21

  Dimensionality = 0               :  Cluster


  Charge on cluster =  -0.000000


  Initial cluster dipoles : x =      0.106497 e.Angs
                            y =     -0.708980 e.Angs
                            z =      0.161144 e.Angs

  Temperature of configuration =  0.000     K 

  Symmetry number =      1

  Cartesian coordinates of cluster :

--------------------------------------------------------------------------------
   No.  Atomic       x           y          z         Charge      Occupancy
        Label      (Angs)      (Angs)     (Angs)        (e)         (Frac)  
--------------------------------------------------------------------------------
      1 Al    c     -0.1445      1.5942      2.3277     3.00000    1.000000    
      2 Al    c      2.4744      2.5195      1.7192     3.00000    1.000000    
      3 Al    c      1.3161      2.5618     -0.5644     3.00000    1.000000    
      4 F     c      0.9435      3.1561      2.6988     0.59000    1.000000    
      5 F     c     -1.4952      2.8628      2.0149     0.59000    1.000000    
      6 F     c     -0.3607     -0.2025      2.7160     0.59000    1.000000    
      7 F     c      1.7164      0.7931      1.9194     0.59000    1.000000    
      8 F     c      3.1361      2.0440     -0.1013     0.59000    1.000000    
      9 F     c      1.1185      3.0565     -2.2899     0.59000    1.000000    
     10 F     c      1.8275      4.0113      0.5716     0.59000    1.000000    
     11 F     c      4.0341      3.1276      2.3881     0.59000    1.000000    
     12 F     c     -0.0888      1.8864      0.3688     0.59000    1.000000    
     13 F     s      0.9435      3.1561      2.6988    -1.59000    1.000000    
     14 F     s     -1.4952      2.8628      2.0149    -1.59000    1.000000    
     15 F     s     -0.3607     -0.2025      2.7160    -1.59000    1.000000    
     16 F     s      1.7164      0.7931      1.9194    -1.59000    1.000000    
     17 F     s      3.1361      2.0440     -0.1013    -1.59000    1.000000    
     18 F     s      1.1185      3.0565     -2.2899    -1.59000    1.000000    
     19 F     s      1.8275      4.0113      0.5716    -1.59000    1.000000    
     20 F     s      4.0341      3.1276      2.3881    -1.59000    1.000000    
     21 F     s     -0.0888      1.8864      0.3688    -1.59000    1.000000    
--------------------------------------------------------------------------------


  Brillouin zone sampling points :

--------------------------------------------------------------------------------
  Point number          x          y          z            Weight
--------------------------------------------------------------------------------
        1           0.000000   0.000000   0.000000     1.00000000
--------------------------------------------------------------------------------


********************************************************************************
*  General input information                                                   *
********************************************************************************

  Species output for all configurations : 

--------------------------------------------------------------------------------
  Species    Type    Atomic    Atomic    Charge       Radii (Angs)     Library
                     Number     Mass       (e)     Cova   Ionic  VDW   Symbol
--------------------------------------------------------------------------------
    Al       Core       13      26.98   3.000000   1.350  0.000  2.050          
    F        Core        9      19.00   0.590000   0.710  0.000  1.300          
    F        Shell       9       0.00  -1.590000   0.710  0.000  1.300          
--------------------------------------------------------------------------------


  Accuracy factor for short range sums = 12.000

  Time limit = Infinity

  Maximum range for interatomic potentials =    100000.000000 Angstroms

  General interatomic potentials :

--------------------------------------------------------------------------------
Atom  Types   Potential      Parameter       Value         Units   Cutoffs(Ang)
  1     2                                                            Min /  Max 
--------------------------------------------------------------------------------
Al   c F    s Buckingham    Buckingham A     3760.0008    eV        0.000 10.000
                            Buckingham rho  0.22200000    Ang       
                            Buckingham C     0.0000000    eV*Ang^6  
--------------------------------------------------------------------------------
F    s F    s Buck 4 range  Buck4 A          1127.7000    eV        0.000 12.000
                            Buck4 rho       0.27530000    Ang       
                            Buck4 C          15.830000    eV*Ang^6  
                            Buck4 minimum    2.7900000    Ang       
--------------------------------------------------------------------------------
F    c F    s Spring (c-s)  Spring k 2       20.770000    eV*Ang^-2 0.000  0.800
                            Spring k 4       0.0000000    eV*Ang^-4 
--------------------------------------------------------------------------------

********************************************************************************
*  Output for configuration   1                                                *
********************************************************************************


  Components of energy : 

--------------------------------------------------------------------------------
  Interatomic potentials     =          10.14265621 eV    
  Monopole - monopole (real) =        -175.78019321 eV    
--------------------------------------------------------------------------------
  Total lattice energy       =        -165.63753699 eV    
--------------------------------------------------------------------------------
  Total lattice energy       =          -15981.4903 kJ/mol
--------------------------------------------------------------------------------

  Born effective charge tensors : 

-------------------------------------------------------------------------------
  Atom             x           y             z
-------------------------------------------------------------------------------
    1 Al    x       2.4501     -0.1428     -0.1363
            y      -0.1524      2.6469     -0.2768
            z      -0.0367     -0.2479      2.0333
-------------------------------------------------------------------------------
    2 Al    x       2.2928      0.0552     -0.2772
            y       0.0294      2.1749     -0.1242
            z      -0.1941     -0.1436      2.3005
-------------------------------------------------------------------------------
    3 Al    x       2.3285      0.0851      0.1661
            y       0.0781      1.8148     -0.0156
            z      -0.0311     -0.0632      2.3168
-------------------------------------------------------------------------------
    4 F     x      -0.8485     -0.1037      0.1666
            y      -0.0431     -0.6840     -0.1555
            z       0.1997     -0.1896     -0.6107
-------------------------------------------------------------------------------
    5 F     x      -1.1366      0.5306     -0.1152
            y       0.2915     -0.8166      0.1423
            z       0.1109     -0.0316     -0.5504
-------------------------------------------------------------------------------
    6 F     x      -0.5756     -0.2634      0.0734
            y      -0.1276     -1.2975      0.1726
            z       0.0499      0.2790     -0.5895
-------------------------------------------------------------------------------
    7 F     x      -0.8184      0.0413      0.1208
            y      -0.0364     -0.8665      0.1000
            z       0.1049      0.1130     -0.4992
-------------------------------------------------------------------------------
    8 F     x      -1.0369      0.1472      0.1465
            y       0.2820     -0.4393     -0.1246
            z       0.1506     -0.0777     -0.8934
-------------------------------------------------------------------------------
    9 F     x      -0.5029      0.0110     -0.0656
            y       0.0117     -0.5348      0.1689
            z      -0.0727      0.2059     -1.1789
-------------------------------------------------------------------------------
   10 F     x      -0.4418      0.0357     -0.0784
            y      -0.0218     -1.0879      0.0596
            z      -0.1544      0.0566     -0.6791
-------------------------------------------------------------------------------
   11 F     x      -1.0245     -0.2242     -0.2218
            y      -0.1998     -0.5468     -0.0616
            z      -0.2567     -0.0891     -0.6184
-------------------------------------------------------------------------------
   12 F     x      -0.6862     -0.1722      0.2210
            y      -0.1117     -0.3632      0.1148
            z       0.1298      0.1882     -1.0309
-------------------------------------------------------------------------------




  Moment of inertia tensor (10^-46 x kgm^2): 

-------------------------------------------------------------------------------
                x           y           z           Principal axis system
-------------------------------------------------------------------------------
       x        137.38      -20.75       13.46          111.282109
       y        -20.75      181.22       21.55          150.980557
       z         13.46       21.55      137.68          194.015456
-------------------------------------------------------------------------------
  Centre of mass (Ang) =     1.207283     2.278608     1.148686
-------------------------------------------------------------------------------


  Vibrational Frequency Calculation : 

--------------------------------------------------------------------------------

  Frequencies (cm-1) and Eigenvectors : 

  Frequency    -371.8014 -268.7319 -234.6561  -68.8101   -0.0000    0.0000
  IR Intensity    0.0006    0.0007    0.0031    0.0250    0.0000    0.0000
     in X         0.0000    0.0000    0.0012    0.0111    0.0000    0.0000
     in Y         0.0006    0.0000    0.0007    0.0027    0.0000    0.0000
     in Z         0.0000    0.0007    0.0012    0.0111    0.0000    0.0000
  Raman Intsty    0.0537    0.0242    0.0640    0.0792    0.0000    0.0000

     1 x       0.098588  0.373667 -0.032531 -0.024411 -0.127931  0.275768
     1 y      -0.296365 -0.230493  0.472155  0.093949 -0.035639  0.116830
     1 z      -0.073838  0.300934  0.298814  0.292187 -0.299086 -0.131878
     2 x      -0.309727  0.209199  0.123199 -0.195680 -0.127931  0.275768
     2 y       0.694019  0.199814  0.049584 -0.154742 -0.035639  0.116830
     2 z       0.167048 -0.343313 -0.227796 -0.030108 -0.299086 -0.131878
     3 x       0.218637 -0.562187 -0.100959  0.169319 -0.127931  0.275768
     3 y      -0.397934  0.073418 -0.555694  0.095555 -0.035639  0.116830
     3 z      -0.110144  0.029672 -0.076442 -0.233001 -0.299086 -0.131878
     4 x      -0.024198  0.103452 -0.075618  0.034750 -0.107357  0.231419
     4 y       0.069572  0.028840  0.030706  0.093169 -0.029907  0.098041
     4 z       0.063226 -0.018492  0.156816  0.093799 -0.250988 -0.110670
     5 x       0.091777  0.183498 -0.098183  0.048733 -0.107357  0.231419
     5 y      -0.067987 -0.157840  0.091823 -0.482044 -0.029907  0.098041
     5 z       0.016902  0.027500 -0.034588  0.343119 -0.250988 -0.110670
     6 x      -0.039297 -0.001827  0.076875  0.061556 -0.107357  0.231419
     6 y      -0.119293 -0.149717  0.238583  0.027512 -0.029907  0.098041
     6 z       0.018538  0.100701  0.044102  0.228371 -0.250988 -0.110670
     7 x      -0.068641 -0.112985  0.064158 -0.120707 -0.107357  0.231419
     7 y       0.111625  0.084627  0.111434  0.004677 -0.029907  0.098041
     7 z       0.010088  0.005852 -0.101839 -0.012295 -0.250988 -0.110670
     8 x      -0.025943 -0.036071  0.084855 -0.037814 -0.107357  0.231419
     8 y      -0.009147  0.028477 -0.074834 -0.010172 -0.029907  0.098041
     8 z      -0.077207  0.105203 -0.143081 -0.168968 -0.250988 -0.110670
     9 x       0.017723 -0.069396 -0.007848  0.123234 -0.107357  0.231419
     9 y      -0.032152  0.025165 -0.119197  0.127847 -0.029907  0.098041
     9 z      -0.000856 -0.013578  0.017833 -0.233519 -0.250988 -0.110670
    10 x       0.047803 -0.039796  0.033793 -0.014709 -0.107357  0.231419
    10 y      -0.022675  0.042793 -0.275518  0.037568 -0.029907  0.098041
    10 z       0.032057 -0.065769  0.102504 -0.039452 -0.250988 -0.110670
    11 x      -0.011038  0.081235  0.041348 -0.142439 -0.107357  0.231419
    11 y       0.051407  0.060429  0.018430 -0.152535 -0.029907  0.098041
    11 z       0.002517 -0.006216 -0.028414 -0.073017 -0.250988 -0.110670
    12 x       0.002880 -0.132750 -0.107117  0.107897 -0.107357  0.231419
    12 y       0.018983 -0.013703  0.019035  0.312555 -0.029907  0.098041
    12 z      -0.045086 -0.120059 -0.006869 -0.172690 -0.250988 -0.110670


  Frequency       0.0000  102.0041  114.6875  136.4400  143.5782  146.5796
  IR Intensity    0.0000    0.0226    0.0021    0.0088    0.0043    0.0008
     in X         0.0000    0.0083    0.0004    0.0044    0.0038    0.0003
     in Y         0.0000    0.0134    0.0009    0.0027    0.0005    0.0001
     in Z         0.0000    0.0009    0.0008    0.0017    0.0000    0.0004
  Raman Intsty    0.0000    0.2170    0.0577    0.0723    0.0000    0.0419

     1 x       0.121139 -0.084131  0.109793 -0.021196 -0.008651 -0.010570
     1 y      -0.303595 -0.009692 -0.081114 -0.078572 -0.057841 -0.002540
     1 z      -0.015640 -0.170819  0.087367 -0.079362  0.004324  0.031785
     2 x       0.121139  0.098457 -0.133461 -0.039199 -0.027001  0.042566
     2 y      -0.303595 -0.028130 -0.039584 -0.000059  0.024885  0.032771
     2 z      -0.015640  0.111135 -0.032430  0.076408 -0.016072 -0.025540
     3 x       0.121139 -0.034541 -0.003797 -0.002654 -0.002769 -0.009213
     3 y      -0.303595  0.093351  0.161617 -0.008642  0.011068 -0.004288
     3 z      -0.015640  0.107152 -0.097377  0.010542 -0.001546  0.014309
     4 x       0.101658 -0.039523 -0.068443  0.086163  0.055942 -0.293635
     4 y      -0.254771  0.102137 -0.098463 -0.160295 -0.115950  0.177728
     4 z      -0.013125  0.140584  0.318973 -0.094435  0.022021 -0.343581
     5 x       0.101658 -0.060105  0.104057  0.130554 -0.084381 -0.350032
     5 y      -0.254771 -0.240007  0.140747  0.156351 -0.134639 -0.387059
     5 z      -0.013125  0.122646 -0.452525  0.022988  0.308620 -0.288666
     6 x       0.101658  0.126827  0.034569  0.149297  0.281944  0.162718
     6 y      -0.254771 -0.207245 -0.022386  0.162355 -0.043003  0.024203
     6 z      -0.013125 -0.357284  0.207685  0.510321 -0.025440  0.222129
     7 x       0.101658 -0.146509 -0.007006 -0.027052  0.287258  0.083232
     7 y      -0.254771  0.215673 -0.012673 -0.124817 -0.103004  0.059032
     7 z      -0.013125 -0.212447  0.116736 -0.540473 -0.032670  0.147604
     8 x       0.101658  0.422964  0.104914  0.153697  0.070296  0.113835
     8 y      -0.254771  0.073258 -0.000170  0.240907  0.181689 -0.002433
     8 z      -0.013125 -0.052142 -0.219181 -0.045470 -0.190843  0.066490
     9 x       0.101658 -0.039302 -0.005242 -0.077693 -0.464632  0.061679
     9 y      -0.254771  0.213625  0.417161 -0.113613 -0.041727 -0.025113
     9 z      -0.013125  0.137146 -0.035557 -0.009751  0.046055  0.014544
    10 x       0.101658 -0.015563 -0.189336 -0.043988 -0.191811  0.227318
    10 y      -0.254771 -0.315259 -0.266479  0.056366 -0.027544  0.018155
    10 z      -0.013125  0.121494  0.203120 -0.065862 -0.002889 -0.091284
    11 x       0.101658  0.006084 -0.159218 -0.144178 -0.034225 -0.173918
    11 y      -0.254771  0.028576  0.012224 -0.051287  0.414371  0.272053
    11 z      -0.013125  0.228126 -0.047169  0.322065 -0.322862  0.245251
    12 x       0.101658 -0.230783  0.218435 -0.151668  0.125394  0.141654
    12 y      -0.254771  0.063071 -0.218721 -0.061967 -0.104110 -0.167481
    12 z      -0.013125 -0.184688 -0.041509 -0.108424  0.213849  0.003022


  Frequency     150.5474  157.3803  162.1791  166.8920  175.0053  179.7864
  IR Intensity    0.0030    0.0101    0.0105    0.0135    0.0023    0.0040
     in X         0.0025    0.0056    0.0097    0.0119    0.0001    0.0004
     in Y         0.0003    0.0024    0.0000    0.0000    0.0022    0.0035
     in Z         0.0002    0.0021    0.0008    0.0016    0.0000    0.0001
  Raman Intsty    0.0021    0.0107    0.0121    0.0303    0.0065    0.1085

     1 x      -0.021787 -0.037519 -0.079816 -0.152022  0.034578 -0.021639
     1 y       0.052996 -0.120305  0.004296  0.106886 -0.051280 -0.099133
     1 z       0.015019 -0.060671 -0.023736 -0.065725  0.088979 -0.035905
     2 x      -0.014165  0.047094  0.008105  0.045773  0.059075  0.063844
     2 y      -0.026242  0.011722 -0.047271  0.063723  0.076275 -0.007283
     2 z       0.003396 -0.041791  0.030169  0.083569 -0.083097  0.040339
     3 x       0.004561  0.019237  0.020564  0.006384 -0.031989  0.038444
     3 y      -0.001144 -0.019205 -0.010565 -0.059033 -0.100478  0.125459
     3 z      -0.030971  0.113317 -0.004240  0.079621 -0.027015  0.029805
     4 x       0.088487 -0.101093  0.150187  0.027677  0.061997 -0.042410
     4 y      -0.042467 -0.209710  0.056983  0.105935 -0.363888  0.060658
     4 z       0.164479 -0.017521 -0.105931 -0.001930  0.072040  0.027875
     5 x       0.102344 -0.248101  0.214682  0.001059 -0.111418 -0.079859
     5 y      -0.059554 -0.020135  0.080544 -0.290439 -0.259236 -0.057468
     5 z       0.004542 -0.025483  0.277424  0.052875 -0.082729 -0.156269
     6 x      -0.100096  0.082074 -0.406241 -0.092163 -0.464744 -0.414315
     6 y       0.020661 -0.081243  0.174379  0.212109  0.195814  0.057400
     6 z      -0.164117  0.217096  0.114638  0.095366 -0.252540  0.267114
     7 x      -0.000383 -0.059120 -0.078777  0.010042  0.226241 -0.151291
     7 y      -0.008224 -0.087302 -0.081793  0.079346 -0.271143  0.028279
     7 z       0.058339 -0.293618  0.035757 -0.040209 -0.132634  0.120629
     8 x       0.074855 -0.096406  0.136360 -0.071084  0.004697  0.432542
     8 y       0.176256 -0.138987 -0.365358  0.225134  0.251433  0.229673
     8 z       0.161248  0.123258  0.011567  0.076229 -0.049677 -0.028319
     9 x       0.471753  0.459784 -0.026002  0.054824 -0.011063 -0.136839
     9 y      -0.378520  0.220058  0.231348  0.162565  0.229979 -0.366476
     9 z      -0.202874  0.152956  0.057550  0.126831  0.067949 -0.065308
    10 x      -0.431848 -0.025129  0.228892 -0.144670  0.150629  0.047330
    10 y       0.002700 -0.021557 -0.213929  0.160213  0.136920 -0.180687
    10 z       0.019323  0.154002 -0.232116  0.075773  0.116016  0.037976
    11 x      -0.199145  0.132553 -0.118527  0.331228 -0.040546  0.231056
    11 y       0.403465  0.262850  0.399490 -0.215856  0.021099 -0.032481
    11 z       0.091303 -0.399357 -0.045478 -0.249584  0.232806 -0.301000
    12 x       0.031439 -0.178895 -0.039625  0.002091  0.110726  0.017681
    12 y      -0.144836  0.228304 -0.217864 -0.571965  0.148970  0.238409
    12 z      -0.117280  0.075731 -0.116025 -0.251494  0.053952  0.056502


  Frequency     191.3624  218.0246  244.6791  251.1905  255.6908  276.0124
  IR Intensity    0.0033    0.0120    0.0317    0.0125    0.0324    0.1448
     in X         0.0004    0.0047    0.0090    0.0036    0.0019    0.0809
     in Y         0.0001    0.0001    0.0186    0.0048    0.0004    0.0050
     in Z         0.0028    0.0071    0.0041    0.0042    0.0301    0.0588
  Raman Intsty    0.0357    0.0970    0.0540    0.1804    0.0236    0.4533

     1 x      -0.022292 -0.088288 -0.116733 -0.041811 -0.102520 -0.034294
     1 y       0.101730  0.000974  0.030432 -0.103574  0.022486 -0.082238
     1 z      -0.072443  0.147196  0.005714 -0.271327 -0.138974  0.039247
     2 x       0.033401 -0.096690 -0.046613  0.094997 -0.010241 -0.153723
     2 y      -0.058360 -0.056196 -0.142003  0.116643  0.095519 -0.052978
     2 z       0.113512  0.018452  0.073262  0.025254 -0.082656  0.143635
     3 x       0.095585 -0.108382  0.034345 -0.128774 -0.077863 -0.182108
     3 y       0.052257  0.089808 -0.281321  0.195893 -0.024707  0.026753
     3 z       0.037288  0.035240 -0.039358  0.000860 -0.062325  0.244039
     4 x       0.139310 -0.094924  0.056572  0.087596  0.250625  0.100260
     4 y      -0.076990 -0.119717 -0.188938 -0.183637 -0.094664  0.284148
     4 z       0.360527  0.210132 -0.088505  0.133079  0.458827  0.036437
     5 x       0.122587 -0.022352  0.195584 -0.163423 -0.311601  0.302048
     5 y      -0.240730  0.152849  0.017342 -0.050100 -0.045512 -0.227024
     5 z      -0.342702  0.100351 -0.154748  0.110417 -0.025786 -0.257107
     6 x       0.087211  0.048566  0.182354  0.057668  0.062449  0.045739
     6 y       0.073411 -0.201999 -0.072176  0.227616 -0.017091  0.244982
     6 z       0.003825 -0.084756  0.041379  0.156826  0.086672 -0.110662
     7 x      -0.111224 -0.172541  0.045422  0.302253 -0.060204  0.151842
     7 y       0.062360  0.045643 -0.126918  0.084172  0.105760 -0.029138
     7 z      -0.153485 -0.019630  0.461546  0.334168  0.000598 -0.101715
     8 x      -0.215905 -0.051123  0.096655 -0.155204  0.106848 -0.047215
     8 y      -0.254934  0.314481  0.327750 -0.161054 -0.008244 -0.020200
     8 z       0.227992 -0.245152  0.164721 -0.388453  0.177800 -0.297785
     9 x      -0.357420  0.173993 -0.045159  0.104342  0.058172  0.185160
     9 y      -0.190790 -0.149393  0.202835 -0.114591  0.096341 -0.115816
     9 z      -0.008400 -0.044316  0.101347 -0.147784 -0.029476  0.328992
    10 x       0.195215  0.631317  0.027781  0.042588  0.014248  0.007061
    10 y       0.167784  0.116065  0.049814 -0.084164  0.019802 -0.034974
    10 z       0.129020  0.039237 -0.211901  0.095819 -0.623031 -0.206659
    11 x       0.017104 -0.124025 -0.047766  0.135841  0.023950 -0.178686
    11 y       0.254364  0.073556  0.060244  0.001887 -0.111031 -0.068892
    11 z      -0.049074 -0.157272 -0.105073  0.168829  0.038621 -0.153375
    12 x      -0.004018 -0.039332 -0.357720 -0.321586  0.082667 -0.125154
    12 y       0.091572 -0.272699  0.198231  0.030864 -0.056539  0.096164
    12 z      -0.261075 -0.037981 -0.255976 -0.170696  0.254148  0.253140


  Frequency     286.2241  317.0078  333.8467  344.4955  360.2828  370.5459
  IR Intensity    0.0629    0.0400    0.2335    0.0476    0.0337    0.4399
     in X         0.0355    0.0350    0.0780    0.0287    0.0009    0.2409
     in Y         0.0002    0.0048    0.0000    0.0044    0.0050    0.1073
     in Z         0.0273    0.0001    0.1555    0.0146    0.0277    0.0917
  Raman Intsty    0.0167    0.4563    5.3400    1.3630    1.4032    0.0057

     1 x       0.047864 -0.149067  0.232116 -0.007546  0.024546  0.440078
     1 y      -0.138909 -0.036761 -0.022214 -0.028240  0.059117 -0.196582
     1 z       0.139673 -0.042327 -0.354140 -0.003057  0.132060  0.282143
     2 x      -0.236013  0.022430  0.000300 -0.078425 -0.063464  0.040488
     2 y       0.122807 -0.067831 -0.032217  0.031912  0.087062 -0.168387
     2 z       0.081211  0.167768 -0.265949  0.110174  0.115183  0.219353
     3 x      -0.126466 -0.129655  0.062022 -0.127336 -0.028401  0.259390
     3 y       0.171253 -0.061229 -0.007478 -0.021882 -0.003129  0.006502
     3 z      -0.018513 -0.064673 -0.015058  0.027345  0.002566  0.027982
     4 x      -0.308730 -0.061514  0.200135  0.150036  0.571800 -0.056648
     4 y      -0.075077  0.287940  0.145536 -0.343160  0.259057  0.127250
     4 z       0.066943  0.059976  0.014778 -0.254125 -0.107931  0.081023
     5 x       0.002067  0.158797 -0.100600  0.045028 -0.312536 -0.360322
     5 y       0.062366 -0.047178 -0.022917 -0.078508  0.023267  0.142871
     5 z       0.080079 -0.053289  0.128114 -0.012726 -0.133993 -0.016599
     6 x       0.162732  0.012003  0.024837  0.264584  0.042742 -0.010673
     6 y       0.367992 -0.067130  0.170495  0.421321 -0.069236  0.191662
     6 z      -0.188186  0.033441  0.051959 -0.163823 -0.049631 -0.137918
     7 x       0.288176  0.081227 -0.049608 -0.574442 -0.029322 -0.135334
     7 y      -0.088639 -0.201449  0.007400  0.047221 -0.305657 -0.096991
     7 z      -0.070746 -0.107929  0.068993  0.125690  0.009700 -0.047311
     8 x       0.237582 -0.328273 -0.273884  0.012552  0.187784 -0.185010
     8 y      -0.111395  0.242519  0.280066  0.010499 -0.086139  0.101178
     8 z       0.428388  0.110812  0.256670 -0.059215  0.010698 -0.133910
     9 x      -0.000600  0.000674 -0.002638  0.024943 -0.015713 -0.052000
     9 y      -0.021633  0.139197 -0.043584  0.024789  0.068327 -0.020889
     9 z      -0.223905 -0.427447  0.183108 -0.097485 -0.271144  0.103018
    10 x       0.132517  0.114903  0.146694  0.005399  0.041384 -0.098235
    10 y      -0.113947 -0.353312 -0.381475 -0.111042  0.116114 -0.089591
    10 z      -0.023237 -0.032304  0.182348  0.065402  0.262069 -0.284119
    11 x      -0.073223  0.350015 -0.364735  0.155577 -0.139646  0.142092
    11 y      -0.177764  0.161009 -0.110414  0.052144 -0.061699  0.104856
    11 z      -0.191700  0.141011 -0.095824  0.041188 -0.094849  0.040076
    12 x      -0.065612 -0.022424  0.068934  0.170508 -0.266273 -0.125630
    12 y      -0.026786  0.036003  0.028667 -0.001564 -0.114497 -0.033184
    12 z      -0.118790  0.203316 -0.033281  0.194866  0.077399 -0.235205


  Frequency     378.7509  388.9251  451.9789  476.8786  510.3747  628.7117
  IR Intensity    0.2146    0.3389    0.4851    0.1657    0.2396    0.0656
     in X         0.0594    0.0302    0.1538    0.0605    0.0715    0.0226
     in Y         0.0972    0.2420    0.3294    0.0207    0.0001    0.0099
     in Z         0.0580    0.0666    0.0019    0.0845    0.1680    0.0331
  Raman Intsty    0.5801    0.9717    0.4128    0.1244    0.2948    1.2552

     1 x      -0.177772  0.139297 -0.438498  0.139928  0.313333 -0.141417
     1 y       0.100637 -0.249657 -0.506297  0.081734  0.173119 -0.063402
     1 z      -0.053202 -0.299390  0.209063 -0.181866 -0.118225  0.108098
     2 x      -0.066504  0.181635 -0.115747 -0.015098 -0.513477  0.477390
     2 y       0.225230 -0.227297 -0.199478 -0.100683 -0.222945  0.126141
     2 z      -0.188927 -0.086090 -0.202787  0.462969  0.018095  0.362531
     3 x      -0.101331 -0.058688 -0.033575 -0.494506 -0.147250 -0.075134
     3 y       0.142164 -0.286936 -0.099550 -0.233691  0.052703  0.115097
     3 z      -0.061929 -0.102137 -0.135251  0.074750 -0.472339 -0.664489
     4 x      -0.074424 -0.268515  0.257253  0.074517  0.049938 -0.022071
     4 y       0.171477  0.268004  0.171451  0.025980 -0.013395 -0.021035
     4 z       0.132699  0.266706 -0.012786 -0.030064 -0.025646 -0.016178
     5 x      -0.018196  0.061099 -0.108070 -0.150420 -0.006820  0.018123
     5 y       0.051090  0.010283  0.178932  0.102802 -0.048103 -0.006553
     5 z       0.048147  0.109546 -0.020844  0.066208  0.005632 -0.018713
     6 x       0.165991  0.049441  0.059669 -0.031585 -0.056368  0.020451
     6 y      -0.011615  0.235755  0.126963 -0.084733 -0.051767  0.026531
     6 z      -0.021073  0.006716 -0.041201  0.057168  0.028189 -0.017498
     7 x      -0.161656 -0.176907  0.118858  0.099447  0.081939 -0.034502
     7 y      -0.657935 -0.120801  0.264941  0.033498  0.087195 -0.005942
     7 z       0.091937  0.080708 -0.024162 -0.027207 -0.018643 -0.019566
     8 x       0.064780  0.182532  0.015597  0.026497  0.092037 -0.069200
     8 y      -0.055184 -0.042607  0.020919 -0.015392 -0.018861  0.000347
     8 z      -0.058583 -0.062356  0.052574 -0.052153  0.075367  0.048450
     9 x       0.048531 -0.008357  0.011982  0.053312  0.046807  0.025090
     9 y      -0.123477  0.110378 -0.013280  0.031212 -0.060804 -0.056148
     9 z       0.315532 -0.130078  0.136211 -0.024392  0.257773  0.221093
    10 x      -0.003624  0.001673  0.028753 -0.000232  0.057975 -0.010365
    10 y      -0.018622  0.409021  0.039677  0.037731  0.058694 -0.053721
    10 z      -0.018475  0.142196  0.129408 -0.009063  0.100777  0.025568
    11 x       0.192906 -0.074360  0.132327 -0.068077  0.300005 -0.183440
    11 y       0.018270  0.052129  0.082757 -0.013396  0.116005 -0.064966
    11 z       0.107735 -0.001564  0.086407 -0.096307  0.111459 -0.091929
    12 x       0.197531 -0.079105  0.184099  0.437063 -0.151545 -0.054911
    12 y       0.068274 -0.011882  0.087294  0.183352 -0.072392 -0.030430
    12 z      -0.235592  0.169187 -0.151915 -0.308237  0.147267  0.099785




--------------------------------------------------------------------------------
  Vibrational properties (for cluster):  Temperature  =       0.000 K
--------------------------------------------------------------------------------
  Zero point energy            =        0.490985 eV
--------------------------------------------------------------------------------

  Phonon density of states : 

--------------------------------------------------------------------------------
 Frequency (cm-1) Density of States                                             
--------------------------------------------------------------------------------
    0.00000 |****************************************                      0.065
    9.82362 |                                                              0.000
   19.64724 |                                                              0.000
   29.47086 |                                                              0.000
   39.29449 |                                                              0.000
   49.11811 |                                                              0.000
   58.94173 |                                                              0.000
   68.76535 |                                                              0.000
   78.58897 |                                                              0.000
   88.41259 |                                                              0.000
   98.23622 |********************                                          0.032
  108.05984 |********************                                          0.032
  117.88346 |                                                              0.000
  127.70708 |********************                                          0.032
  137.53070 |****************************************                      0.065
  147.35432 |********************                                          0.032
  157.17795 |************************************************************  0.097
  167.00157 |********************                                          0.032
  176.82519 |********************                                          0.032
  186.64881 |********************                                          0.032
  196.47243 |                                                              0.000
  206.29605 |                                                              0.000
  216.11967 |********************                                          0.032
  225.94330 |                                                              0.000
  235.76692 |********************                                          0.032
  245.59054 |********************                                          0.032
  255.41416 |********************                                          0.032
  265.23778 |                                                              0.000
  275.06140 |********************                                          0.032
  284.88503 |********************                                          0.032
  294.70865 |                                                              0.000
  304.53227 |                                                              0.000
  314.35589 |********************                                          0.032
  324.17951 |********************                                          0.032
  334.00313 |                                                              0.000
  343.82675 |********************                                          0.032
  353.65038 |********************                                          0.032
  363.47400 |********************                                          0.032
  373.29762 |********************                                          0.032
  383.12124 |********************                                          0.032
  392.94486 |                                                              0.000
  402.76848 |                                                              0.000
  412.59211 |                                                              0.000
  422.41573 |                                                              0.000
  432.23935 |                                                              0.000
  442.06297 |                                                              0.000
  451.88659 |********************                                          0.032
  461.71021 |                                                              0.000
  471.53384 |********************                                          0.032
  481.35746 |                                                              0.000
  491.18108 |                                                              0.000
  501.00470 |********************                                          0.032
  510.82832 |                                                              0.000
  520.65194 |                                                              0.000
  530.47556 |                                                              0.000
  540.29919 |                                                              0.000
  550.12281 |                                                              0.000
  559.94643 |                                                              0.000
  569.77005 |                                                              0.000
  579.59367 |                                                              0.000
  589.41729 |                                                              0.000
  599.24092 |                                                              0.000
  609.06454 |                                                              0.000
  618.88816 |********************                                          0.032
--------------------------------------------------------------------------------



  XYZ File written as 004/3/sp_mod_-60/sp_mod_-60_eig.xyz


  Time to end of properties =       0.0131 seconds


  Peak dynamic memory used =       0.64 MB 


  Timing analysis for GULP :

--------------------------------------------------------------------------------
  Task / Subroutine                                          Time (Seconds)
--------------------------------------------------------------------------------
  Calculation of phonons                                          0.0039
--------------------------------------------------------------------------------
  Total CPU time                                                  0.0132
--------------------------------------------------------------------------------


  Job Finished at 10:33.08 17th May        2022                               

