------------------------------------------------------------
          Invoking FHI-aims ...

          When using FHI-aims, please cite the following reference:

            Volker Blum, Ralf Gehrke, Felix Hanke, Paula Havu,
            Ville Havu, Xinguo Ren, Karsten Reuter, and Matthias Scheffler,
            'Ab Initio Molecular Simulations with Numeric Atom-Centered Orbitals',
            Computer Physics Communications 180, 2175-2196 (2009)

          In addition, many other developments in FHI-aims are likely important for
          your particular application. A partial list of references is given at the end of
          this file. Thank you for giving credit to the authors of these developments.

          For any questions about FHI-aims, please visit our slack channel at

            https://fhi-aims.slack.com

          and our main development and support site at

            https://aims-git.rz-berlin.mpg.de .

          The latter site, in particular, has a wiki to collect information, as well
          as an issue tracker to log discussions, suggest improvements, and report issues
          or bugs. https://aims-git.rz-berlin.mpg.de is also the main development site
          of the project and all new and updated code versions can be obtained there.
          Please send an email to aims-coordinators@fhi-berlin.mpg.de and we will add
          you to these sites. They are for you and everyone is welcome there.

------------------------------------------------------------



  Date     :  20220517, Time     :  114719.334
  Time zero on CPU 1             :   0.539000000000000E-01  s.
  Internal wall clock time zero  :           422020039.334  s.

  FHI-aims created a unique identifier for this run for later identification
  aims_uuid : B781BA85-8C1F-4504-AB6E-C39153B41042

  Build configuration of the current instance of FHI-aims
  -------------------------------------------------------
  FHI-aims version      : 210914
  Commit number         : GITDIR-NOTFOUND
  CMake host system     : Linux-3.10.0-693.17.1.el7.x86_64
  CMake version         : 3.21.1
  Fortran compiler      : /shared/ucl/apps/intel/2018.Update3/impi/2018.3.222/intel64/bin/mpiifort (Intel) version 18.0.3.20180410
  Fortran compiler flags: -O3 -ip -fp-model precise
  C compiler            : /shared/ucl/apps/intel/2018.Update3/compilers_and_libraries_2018.3.222/linux/bin/intel64/icc (Intel) version 18.0.3.20180410
  C compiler flags      : -O3 -ip -fp-model precise -std=gnu99
  ELPA2 kernel          : AVX2
  Using MPI
  Using ScaLAPACK
  Using LibXC
  Using i-PI
  Using RLSY
  Linking against: /shared/ucl/apps/intel/2019.Update5/compilers_and_libraries_2019.5.281/linux/mkl/lib/intel64/libmkl_intel_lp64.so
                   /shared/ucl/apps/intel/2019.Update5/compilers_and_libraries_2019.5.281/linux/mkl/lib/intel64/libmkl_sequential.so
                   /shared/ucl/apps/intel/2019.Update5/compilers_and_libraries_2019.5.281/linux/mkl/lib/intel64/libmkl_core.so
                   /shared/ucl/apps/intel/2019.Update5/compilers_and_libraries_2019.5.281/linux/mkl/lib/intel64/libmkl_blacs_intelmpi_lp64.so
                   /shared/ucl/apps/intel/2019.Update5/compilers_and_libraries_2019.5.281/linux/mkl/lib/intel64/libmkl_scalapack_lp64.so

  Using       24 parallel tasks.
  Task        0 on host node-k98e-003 reporting.
  Task        1 on host node-k98e-003 reporting.
  Task        2 on host node-k98e-003 reporting.
  Task        3 on host node-k98e-003 reporting.
  Task        4 on host node-k98e-003 reporting.
  Task        5 on host node-k98e-003 reporting.
  Task        6 on host node-k98e-003 reporting.
  Task        7 on host node-k98e-003 reporting.
  Task        8 on host node-k98e-003 reporting.
  Task        9 on host node-k98e-003 reporting.
  Task       10 on host node-k98e-003 reporting.
  Task       11 on host node-k98e-003 reporting.
  Task       12 on host node-k98e-003 reporting.
  Task       13 on host node-k98e-003 reporting.
  Task       14 on host node-k98e-003 reporting.
  Task       15 on host node-k98e-003 reporting.
  Task       16 on host node-k98e-003 reporting.
  Task       17 on host node-k98e-003 reporting.
  Task       18 on host node-k98e-003 reporting.
  Task       19 on host node-k98e-003 reporting.
  Task       20 on host node-k98e-003 reporting.
  Task       21 on host node-k98e-003 reporting.
  Task       22 on host node-k98e-003 reporting.
  Task       23 on host node-k98e-003 reporting.

  Performing system and environment tests:
  | Environment variable OMP_NUM_THREADS correctly set to 1.
  | Checking for ScaLAPACK...
  | Testing pdtran()...
  | All pdtran() tests passed.

  Obtaining array dimensions for all initial allocations:
  
  -----------------------------------------------------------------------
  Parsing control.in (first pass over file, find array dimensions only).
  The contents of control.in will be repeated verbatim below
  unless switched off by setting 'verbatim_writeout .false.' .
  in the first line of control.in .
  -----------------------------------------------------------------------
  
  #########################################################################################  Physical model
  #########################################################################################
  xc                 pbesol
  spin               none
  relativistic       atomic_zora scalar
  charge             0.0
  #  SCF convergence
  occupation_type    gaussian 0.01
  mixer              pulay
  n_max_pulay        10
  charge_mix_param   0.5
  sc_accuracy_rho    1E-5
  sc_accuracy_eev    1E-3
  sc_accuracy_etot   1E-6
  sc_accuracy_forces 1E-4
  sc_iter_limit      1500
  #  Relaxation
  #relax_geometry   bfgs 1.e-3
  
  ################################################################################
  #
  #  FHI-aims code project
  #  VB, Fritz-Haber Institut, 2009
  #
  #  Suggested "light" defaults for Al atom (to be pasted into control.in file)
  #  Be sure to double-check any results obtained with these settings for post-processing,
  #  e.g., with the "tight" defaults and larger basis sets.
  #
  ################################################################################
    species        Al
  #     global species definitions
      nucleus             13
      mass                26.9815386
  #
      l_hartree           4
  #
      cut_pot             3.5          1.5  1.0
      basis_dep_cutoff    1e-4
  #
      radial_base         41 5.0
      radial_multiplier   1
      angular_grids       specified
        division   0.6594  110
        division   0.8170  194
        division   0.9059  302
  #      division   1.0363  434
  #      division   1.1443  590
  #      division   1.2621  770
  #      division   2.8177  974
  #      outer_grid   974
        outer_grid   302
  ################################################################################
  #
  #  Definition of "minimal" basis
  #
  ################################################################################
  #     valence basis states
      valence      3  s   2.
      valence      3  p   1.
  #     ion occupancy
      ion_occ      3  s   1.
      ion_occ      2  p   6.
  ################################################################################
  #
  #  Suggested additional basis functions. For production calculations,
  #  uncomment them one after another (the most important basis functions are
  #  listed first).
  #
  #  Constructed for dimers: 2.0 A, 2.5 A, 3.0 A, 3.75 A, 4.5 A
  #
  ################################################################################
  #  "First tier" - improvements: -199.47 meV to -10.63 meV
       ionic 3 d auto
       ionic 3 p auto
  #     hydro 4 f 4.7
       ionic 3 s auto
  #  "Second tier" - improvements: -5.35 meV to -1.57 meV
  #     hydro 5 g 7
  #     hydro 3 d 6
  #     hydro 2 s 11.6
  #     hydro 2 p 0.9
  #  "Third tier" - improvements: -0.63 meV to -0.20 meV
  #     hydro 5 f 7.6
  #     hydro 4 p 7.2
  #     hydro 4 s 3.7
  #     hydro 4 d 7.6
  #  "Fourth tier" - improvements: -0.17 meV to -0.08 meV
  #     hydro 4 d 13.6
  #     hydro 5 g 11.2
  #     hydro 4 d 0.9
  #     hydro 1 s 0.4
  #     hydro 4 p 0.1
  #     hydro 5 f 9.8
  #  Further basis functions that fell out of the optimization - noise level...
  #     hydro 4 p 5
  
  ################################################################################
  #
  #  FHI-aims code project
  #  VB, Fritz-Haber Institut, 2009
  #
  #  Suggested "light" defaults for F atom (to be pasted into control.in file)
  #  Be sure to double-check any results obtained with these settings for post-processing,
  #  e.g., with the "tight" defaults and larger basis sets.
  #
  ################################################################################
    species        F
  #     global species definitions
      nucleus             9
      mass                18.9984032
  #
      l_hartree           4
  #
      cut_pot             3.5  1.5  1.0
      basis_dep_cutoff    1e-4
  #
      radial_base         37 5.0
      radial_multiplier   1
      angular_grids specified
        division   0.4014  110
        division   0.5291  194
        division   0.6019  302
  #      division   0.6814  434
  #      division   0.7989  590
  #      division   0.8965  770
  #      division   1.3427  974
  #      outer_grid   974
        outer_grid   302
  ################################################################################
  #
  #  Definition of "minimal" basis
  #
  ################################################################################
  #     valence basis states
      valence      2  s   2.
      valence      2  p   5.
  #     ion occupancy
      ion_occ      2  s   1.
      ion_occ      2  p   4.
  ################################################################################
  #
  #  Suggested additional basis functions. For production calculations,
  #  uncomment them one after another (the most important basis functions are
  #  listed first).
  #
  #  Constructed for dimers: 1.2 A, 1.418 A, 1.75 A, 2.25 A, 3.25 A
  #
  ################################################################################
  #  "First tier" - improvements: -149.44 meV to -45.88 meV
       hydro 2 p 1.7
       hydro 3 d 7.4
       hydro 3 s 6.8
  #  "Second tier" - improvements: -12.96 meV to -1.56 meV
  #     hydro 4 f 11.2
  #     ionic 2 p auto
  #     hydro 1 s 0.75
  #     hydro 4 d 8.8
  #     hydro 5 g 16.8
  #  "Third tier" - improvements: -0.58 meV to -0.05 meV
  #     hydro 3 p 6.2
  #     hydro 3 s 3.2
  #     hydro 4 f 9.6
  #     hydro 3 s 19.6
  #     hydro 4 d 8.6
  #     hydro 5 g 14.4
  # Further basis functions: -0.05 meV and below
  #     hydro 3 p 4.2
  
  -----------------------------------------------------------------------
  Completed first pass over input file control.in .
  -----------------------------------------------------------------------
  
  
  -----------------------------------------------------------------------
  Parsing geometry.in (first pass over file, find array dimensions only).
  The contents of geometry.in will be repeated verbatim below
  unless switched off by setting 'verbatim_writeout .false.' .
  in the first line of geometry.in .
  -----------------------------------------------------------------------
  
  atom -0.345712438 0.948555560 -1.817857136 Al
  atom -0.442645781 1.050110891 1.282126201 Al
  atom -3.035133303 0.528935678 -1.860155609 Al
  atom -3.598793455 0.625157736 -3.605648561 F
  atom -1.437737758 -0.581233304 -2.007074938 F
  atom -1.883510693 2.079815789 -1.727516761 F
  atom -1.960707777 0.375392255 0.462215709 F
  atom 0.636424416 1.084821297 -0.291240775 F
  atom -0.536486581 2.862718404 1.706727771 F
  atom 0.527288808 -0.134980071 2.327424558 F
  atom -4.263642167 0.150684126 -0.579645713 F
  atom 0.750516619 1.230218103 -3.233596444 F
  
  -----------------------------------------------------------------------
  Completed first pass over input file geometry.in .
  -----------------------------------------------------------------------
  

  Basic array size parameters:
  | Number of species                 :        2
  | Number of atoms                   :       12
  | Max. basis fn. angular momentum   :        2
  | Max. atomic/ionic basis occupied n:        3
  | Max. number of basis fn. types    :        3
  | Max. radial fns per species/type  :        5
  | Max. logarithmic grid size        :     1340
  | Max. radial integration grid size :       41
  | Max. angular integration grid size:      302
  | Max. angular grid division number :        8
  | Radial grid for Hartree potential :     1340
  | Number of spin channels           :        1

------------------------------------------------------------
          Reading file control.in.
------------------------------------------------------------
  XC: Using PBEsol gradient-corrected functionals.
  Spin treatment: No spin polarisation.
  Scalar relativistic treatment of kinetic energy: on-site free-atom approximation to ZORA.
  Charge =   0.000000E+00: Neutral system requested explicitly.
  Occupation type: Gaussian broadening, width =   0.100000E-01 eV.
  Using pulay charge density mixing.
  Pulay mixing - number of memorized iterations:   10
  Charge density mixing - mixing parameter:     0.5000
  Convergence accuracy of self-consistent charge density:  0.1000E-04
  Convergence accuracy of sum of eigenvalues:  0.1000E-02
  Convergence accuracy of total energy:  0.1000E-05
  Convergence accuracy of forces:  0.1000E-03
  Maximum number of s.-c. iterations  :  1500
 
  Reading configuration options for species Al                  .
  | Found nuclear charge :  13.0000
  | Found atomic mass :    26.9815386000000      amu
  | Found l_max for Hartree potential  :   4
  | Found cutoff potl. onset [A], width [A], scale factor :    3.50000    1.50000    1.00000
  | Threshold for basis-dependent cutoff potential is   0.100000E-03
  | Found data for basic radial integration grid :    41 points, outermost radius =    5.000 A
  | Found multiplier for basic radial grid :   1
  | Found angular grid specification: user-specified.
  | Specified grid contains     4 separate shells.
  | Check grid settings after all constraints further below.
  | Found free-atom valence shell :  3 s   2.000
  | Found free-atom valence shell :  3 p   1.000
  | Found free-ion valence shell :  3 s   1.000
  | Found free-ion valence shell :  2 p   6.000
  | Found ionic basis function :  3 d , default cutoff radius.
  | Found ionic basis function :  3 p , default cutoff radius.
  | Found ionic basis function :  3 s , default cutoff radius.
  Species Al                  : Missing cutoff potential type.
  Defaulting to exp(1/x)/(1-x)^2 type cutoff potential.
  Species Al: No 'logarithmic' tag. Using default grid for free atom:
  | Default logarithmic grid data [bohr] : 0.1000E-03 0.1000E+03 0.1012E+01
  | Will include ionic basis functions of  2.0-fold positive Al                   ion.
  Species Al: On-site basis accuracy parameter (for Gram-Schmidt orthonormalisation) not specified.
  Using default value basis_acc =  0.1000000E-03.
  Species Al                  : Using default innermost maximum threshold i_radial=  2 for radial functions.
  Species Al                  : Default cutoff onset for free atom density etc. : 0.35000000E+01 AA.
  Species Al                  : Basic radial grid will be enhanced according to radial_multiplier =   1, to contain    41 grid points.
 
  Reading configuration options for species F                   .
  | Found nuclear charge :   9.0000
  | Found atomic mass :    18.9984032000000      amu
  | Found l_max for Hartree potential  :   4
  | Found cutoff potl. onset [A], width [A], scale factor :    3.50000    1.50000    1.00000
  | Threshold for basis-dependent cutoff potential is   0.100000E-03
  | Found data for basic radial integration grid :    37 points, outermost radius =    5.000 A
  | Found multiplier for basic radial grid :   1
  | Found angular grid specification: user-specified.
  | Specified grid contains     4 separate shells.
  | Check grid settings after all constraints further below.
  | Found free-atom valence shell :  2 s   2.000
  | Found free-atom valence shell :  2 p   5.000
  | Found free-ion valence shell :  2 s   1.000
  | Found free-ion valence shell :  2 p   4.000
  | Found hydrogenic basis function :  2 p   1.700
  | Found hydrogenic basis function :  3 d   7.400
  | Found hydrogenic basis function :  3 s   6.800
  Species F                   : Missing cutoff potential type.
  Defaulting to exp(1/x)/(1-x)^2 type cutoff potential.
  Species F : No 'logarithmic' tag. Using default grid for free atom:
  | Default logarithmic grid data [bohr] : 0.1000E-03 0.1000E+03 0.1012E+01
  Species F : On-site basis accuracy parameter (for Gram-Schmidt orthonormalisation) not specified.
  Using default value basis_acc =  0.1000000E-03.
  Species F                   : Using default innermost maximum threshold i_radial=  2 for radial functions.
  Species F                   : Default cutoff onset for free atom density etc. : 0.35000000E+01 AA.
  Species F                   : Basic radial grid will be enhanced according to radial_multiplier =   1, to contain    37 grid points.
 
  Finished reading input file 'control.in'.
 
------------------------------------------------------------


------------------------------------------------------------
          Reading geometry description geometry.in.
------------------------------------------------------------
  | The smallest distance between any two atoms is         1.81255889 AA.
  | The first atom of this pair is atom number                      1 .
  | The second atom of this pair is atom number                    12 .
  Input structure read successfully.
  The structure contains       12 atoms,  and a total of        120.000 electrons.

  Input geometry:
  | No unit cell requested.
  | Atomic structure:
  |       Atom                x [A]            y [A]            z [A]
  |    1: Species Al           -0.34571244        0.94855556       -1.81785714
  |    2: Species Al           -0.44264578        1.05011089        1.28212620
  |    3: Species Al           -3.03513330        0.52893568       -1.86015561
  |    4: Species F            -3.59879345        0.62515774       -3.60564856
  |    5: Species F            -1.43773776       -0.58123330       -2.00707494
  |    6: Species F            -1.88351069        2.07981579       -1.72751676
  |    7: Species F            -1.96070778        0.37539226        0.46221571
  |    8: Species F             0.63642442        1.08482130       -0.29124078
  |    9: Species F            -0.53648658        2.86271840        1.70672777
  |   10: Species F             0.52728881       -0.13498007        2.32742456
  |   11: Species F            -4.26364217        0.15068413       -0.57964571
  |   12: Species F             0.75051662        1.23021810       -3.23359644

 
  Finished reading input file 'control.in'.
 

------------------------------------------------------------
          Reading geometry description geometry.in.
------------------------------------------------------------
 
  Consistency checks for stacksize environment parameter are next.
 
  | Maximum stacksize for task 0: unlimited
  | Maximum stacksize for task 1: unlimited
  | Maximum stacksize for task 2: unlimited
  | Maximum stacksize for task 3: unlimited
  | Maximum stacksize for task 4: unlimited
  | Maximum stacksize for task 5: unlimited
  | Maximum stacksize for task 6: unlimited
  | Maximum stacksize for task 7: unlimited
  | Maximum stacksize for task 8: unlimited
  | Maximum stacksize for task 9: unlimited
  | Maximum stacksize for task 10: unlimited
  | Maximum stacksize for task 11: unlimited
  | Maximum stacksize for task 12: unlimited
  | Maximum stacksize for task 13: unlimited
  | Maximum stacksize for task 14: unlimited
  | Maximum stacksize for task 15: unlimited
  | Maximum stacksize for task 16: unlimited
  | Maximum stacksize for task 17: unlimited
  | Maximum stacksize for task 18: unlimited
  | Maximum stacksize for task 19: unlimited
  | Maximum stacksize for task 20: unlimited
  | Maximum stacksize for task 21: unlimited
  | Maximum stacksize for task 22: unlimited
  | Maximum stacksize for task 23: unlimited
  | Current stacksize for task 0: unlimited
  | Current stacksize for task 1: unlimited
  | Current stacksize for task 2: unlimited
  | Current stacksize for task 3: unlimited
  | Current stacksize for task 4: unlimited
  | Current stacksize for task 5: unlimited
  | Current stacksize for task 6: unlimited
  | Current stacksize for task 7: unlimited
  | Current stacksize for task 8: unlimited
  | Current stacksize for task 9: unlimited
  | Current stacksize for task 10: unlimited
  | Current stacksize for task 11: unlimited
  | Current stacksize for task 12: unlimited
  | Current stacksize for task 13: unlimited
  | Current stacksize for task 14: unlimited
  | Current stacksize for task 15: unlimited
  | Current stacksize for task 16: unlimited
  | Current stacksize for task 17: unlimited
  | Current stacksize for task 18: unlimited
  | Current stacksize for task 19: unlimited
  | Current stacksize for task 20: unlimited
  | Current stacksize for task 21: unlimited
  | Current stacksize for task 22: unlimited
  | Current stacksize for task 23: unlimited
 
  Consistency checks for the contents of control.in are next.
 
  MPI_IN_PLACE appears to work with this MPI implementation.
  | Keeping use_mpi_in_place .true. (see manual).
  Target number of points in a grid batch is not set. Defaulting to  100
  Method for grid partitioning is not set. Defaulting to parallel hash+maxmin partitioning.
  Batch size limit is not set. Defaulting to    200
  By default, will store active basis functions for each batch.
  If in need of memory, prune_basis_once .false. can be used to disable this option.
  communication_type for Hartree potential was not specified.
  Defaulting to calc_hartree .
  Pulay mixer: Number of initial linear mixing iterations not set.
  Defaulting to    0 iterations.
  Work space size for distributed Hartree potential not set.
  Defaulting to   0.200000E+03 MB.
  Algorithm-dependent basis array size parameters:
  | n_max_pulay                         :       10
  Presetting      1001 iterations before the initial mixing cycle
  is restarted anyway using the sc_init_iter criterion / keyword.
  Presetting a factor      1.000 between actual scf density residual
  and density convergence criterion sc_accuracy_rho below which sc_init_iter
  takes no effect.
  Geometry relaxation not requested: no relaxation will be performed.
  Forces evaluation will include force correction term due to incomplete self-consistency (default).
  Handling of forces: Unphysical translation and rotation will be removed from forces.
  No accuracy limit for integral partition fn. given. Defaulting to  0.1000E-14.
  No threshold value for u(r) in integrations given. Defaulting to  0.1000E-05.
  No accuracy for occupation numbers given. Defaulting to  0.1000E-12.
  No threshold value for occupation numbers given. Defaulting to  0.0000E+00.
  No accuracy for fermi level given. Defaulting to  0.1000E-19.
  Maximum # of iterations to find E_F not set. Defaulting to  200.
  Preferred method for the eigenvalue solver ('KS_method') not specified in 'control.in'.
  Calling BLACS routine to test compilation state
  Since ScaLAPACK support is enabled, defaulting to ELPA (via ELSI).
  Will not use alltoall communication since running on < 1024 CPUs.
  Threshold for basis singularities not set.
  Default threshold for basis singularities:  0.1000E-04
  partition_type (choice of integration weights) for integrals was not specified.
  | Using a version of the partition function of Stratmann and coworkers ('stratmann_sparse').
  | At each grid point, the set of atoms used to build the partition table is smoothly restricted to
  | only those atoms whose free-atom density would be non-zero at that grid point.
  Partitioning for Hartree potential was not defined. Using partition_type for integrals.
  | Adjusted default value of keyword multip_moments_threshold to:       0.10000000E-11
  | This value may affect high angular momentum components of the Hartree potential in periodic systems.
  No q(lm)/r^(l+1) cutoff set for long-range Hartree potential.
  | Using default value of  0.100000E-09 .
  | Verify using the multipole_threshold keyword.
  Defaulting to new monopole extrapolation.
  Density update method: automatic selection selected.
  Charge integration errors on the 3D integration grid will be compensated
  by explicit normalization and distribution of residual charges.
  Use the "compensate_multipole_errors" flag to change this behaviour.
  Set 'collect_eigenvectors' to be '.true.' for use_density_matrix .false.
 
  Consistency checks for the contents of geometry.in are next.
 
  Number of empty states per atom not set in control.in - providing a guess from actual geometry.
  | Total number of empty states used during s.c.f. cycle:       36
  If you use a very high smearing, use empty_states (per atom!) in control.in to increase this value.

  Structure-dependent array size parameters: 
  | Maximum number of distinct radial functions  :       14
  | Maximum number of basis functions            :      180
  | Number of Kohn-Sham states (occupied + empty):       96
------------------------------------------------------------

------------------------------------------------------------
          Preparing all fixed parts of the calculation.
------------------------------------------------------------
  Determining machine precision:
    2.225073858507201E-308
  Setting up grids for atomic and cluster calculations.

  Creating wave function, potential, and density for free atoms.

  Species: Al

  List of occupied orbitals and eigenvalues:
    n    l              occ      energy [Ha]    energy [eV]
    1    0           2.0000       -55.621123     -1513.5278
    2    0           2.0000        -3.957030      -107.6763
    3    0           2.0000        -0.272233        -7.4078
    2    1           6.0000        -2.540949       -69.1427
    3    1           1.0000        -0.083300        -2.2667


  Species: F

  List of occupied orbitals and eigenvalues:
    n    l              occ      energy [Ha]    energy [eV]
    1    0           2.0000       -24.399611      -663.9472
    2    0           2.0000        -1.098702       -29.8972
    2    1           5.0000        -0.408210       -11.1080


  Adding cutoff potential to free-atom effective potential.
  Creating fixed part of basis set: Ionic, confined, hydrogenic.
 
  Al                   ion:

  List of free ionic orbitals and eigenvalues:
    n    l      energy [Ha]    energy [eV]
    1    0       -56.418846     -1535.2349
    2    0        -4.732717      -128.7838
    3    0        -0.872690       -23.7471
    2    1        -3.317230       -90.2664


  List of ionic basis orbitals and eigenvalues:
    n    l      energy [Ha]    energy [eV]    outer radius [A]
    3    2        -0.346815        -9.4373       4.594041
    3    1        -0.631870       -17.1940       4.538221
    3    0        -0.872657       -23.7462       4.538221

 
  F                    hydrogenic:
 
  List of hydrogenic basis orbitals: 
    n    l      effective z      eigenvalue [eV]  inner max. [A]     outer max. [A]     outer radius [A]   
    2    1         1.700000        -9.7616           1.243167           1.243167           4.598524
    3    2         7.400000       -82.7828           0.642437           0.642437           3.305741
    3    0         6.800000       -69.9026           0.057798           1.022307           3.781556
 
  Creating atomic-like basis functions for current effective potential.

  Species Al                  :

  List of atomic basis orbitals and eigenvalues:
    n    l      energy [Ha]    energy [eV]    outer radius [A]
    1    0       -55.621123     -1513.5278       0.850197
    2    0        -3.957030      -107.6763       3.144911
    3    0        -0.272233        -7.4078       4.594041
    2    1        -2.540949       -69.1427       3.731966
    3    1        -0.083300        -2.2667       4.594041


  Species F                   :

  List of atomic basis orbitals and eigenvalues:
    n    l      energy [Ha]    energy [eV]    outer radius [A]
    1    0       -24.399611      -663.9472       1.258458
    2    0        -1.098702       -29.8972       4.325857
    2    1        -0.408210       -11.1080       4.487453

  Assembling full basis from fixed parts.
  | Species Al :   atomic orbital   1 s accepted.
  | Species Al :   atomic orbital   2 s accepted.
  | Species Al :    ionic orbital   3 s accepted.
  | Species Al :   atomic orbital   3 s accepted.
  | Species Al :   atomic orbital   2 p accepted.
  | Species Al :    ionic orbital   3 p accepted.
  | Species Al :   atomic orbital   3 p accepted.
  | Species Al :    ionic orbital   3 d accepted.
  | Species F :   atomic orbital   1 s accepted.
  | Species F :    hydro orbital   3 s accepted.
  | Species F :   atomic orbital   2 s accepted.
  | Species F :   atomic orbital   2 p accepted.
  | Species F :    hydro orbital   2 p accepted.
  | Species F :    hydro orbital   3 d accepted.
 
  Basis size parameters after reduction:
  | Total number of radial functions:       14
  | Total number of basis functions :      180
 
  Per-task memory consumption for arrays in subroutine allocate_ext:
  |           4.807768MB.
  Testing on-site integration grid accuracy.
  |  Species  Function  <phi|h_atom|phi> (log., in eV)  <phi|h_atom|phi> (rad., in eV)
           1        1              -1513.5277717935              -1513.5271881332
           1        2               -107.6762691836               -107.6762662489
           1        3                 -6.9467474784                 -6.9471269649
           1        4                  5.5771951849                  5.4862107220 ***
           1        5                -69.1427313144                -69.1427312731
           1        6                 -1.5197375330                 -1.5230432022
           1        7                  6.8210948310                  6.5529872240 ***
           1        8                  4.3216540965                  4.2851170187 ***
           2        9               -663.9471986398               -663.9470363334
           2       10                 16.8514011578                 16.8512525338
           2       11                -28.4490593856                -28.4490661472
           2       12                -11.1080115307                -11.1080620173
           2       13                  7.1940182175                  7.1685154137
           2       14                 44.8544281765                 44.8543763625
 * Note: Onsite integrals marked "***" above are less accurate than
 * onsite_accuracy_threshold =    0.03000 eV. Usually, this is harmless.
 * When in doubt, tighten the "radial" and/or "radial_multiplier" flags to check.

  Preparing densities etc. for the partition functions (integrals / Hartree potential).

  Preparations completed.
  max(cpu_time)          :      0.183 s.
  Wall clock time (cpu1) :      0.188 s.
------------------------------------------------------------

------------------------------------------------------------
          Begin self-consistency loop: Initialization.

          Date     :  20220517, Time     :  114719.620
------------------------------------------------------------

  Initializing index lists of integration centers etc. from given atomic structure:
  | Number of centers in hartree potential         :        12
  | Number of centers in hartree multipole         :        12
  | Number of centers in electron density summation:        12
  | Number of centers in basis integrals           :        12
  | Number of centers in integrals                 :        12
  | Number of centers in hamiltonian               :        12
  * Using 24 tasks for Scalapack Eigenvalue solver.
  Detailed listing of tasks and assigned k-points:
  (for non-periodic systems, the "k-point" denotes an internal label only)
   Task     0 k-point     1 on node-k98e-003
   Task     1 k-point     1 on node-k98e-003
   Task     2 k-point     1 on node-k98e-003
   Task     3 k-point     1 on node-k98e-003
   Task     4 k-point     1 on node-k98e-003
   Task     5 k-point     1 on node-k98e-003
   Task     6 k-point     1 on node-k98e-003
   Task     7 k-point     1 on node-k98e-003
   Task     8 k-point     1 on node-k98e-003
   Task     9 k-point     1 on node-k98e-003
   Task    10 k-point     1 on node-k98e-003
   Task    11 k-point     1 on node-k98e-003
   Task    12 k-point     1 on node-k98e-003
   Task    13 k-point     1 on node-k98e-003
   Task    14 k-point     1 on node-k98e-003
   Task    15 k-point     1 on node-k98e-003
   Task    16 k-point     1 on node-k98e-003
   Task    17 k-point     1 on node-k98e-003
   Task    18 k-point     1 on node-k98e-003
   Task    19 k-point     1 on node-k98e-003
   Task    20 k-point     1 on node-k98e-003
   Task    21 k-point     1 on node-k98e-003
   Task    22 k-point     1 on node-k98e-003
   Task    23 k-point     1 on node-k98e-003
  Tasks:    24 split into      6 X      4 BLACS grid
  Calculating block size based on n_basis =          180  max_nprow =            6  max_npcol =            4
  ScaLAPACK block size set to:           16
  Allocating        0.012 MB for ovlp
  Allocating        0.012 MB for ham
  Allocating        0.012 MB for eigenvec
  Required Scalapack workspace - INTEGER:            1  REAL:             1
  Partitioning the integration grid into batches with parallel hashing+maxmin method.
  | Number of batches:     1012
  | Maximal batch size:     191
  | Minimal batch size:      15
  | Average batch size:      90.830
  | Standard deviation of batch sizes:      29.057

  Integration load balanced across    24 MPI tasks.
  Work distribution over tasks is as follows:
  Task     0 has       3863 integration points.
  Task     1 has       3796 integration points.
  Task     2 has       3764 integration points.
  Task     3 has       3867 integration points.
  Task     4 has       3853 integration points.
  Task     5 has       3788 integration points.
  Task     6 has       3867 integration points.
  Task     7 has       3873 integration points.
  Task     8 has       3912 integration points.
  Task     9 has       3790 integration points.
  Task    10 has       3771 integration points.
  Task    11 has       3785 integration points.
  Task    12 has       3766 integration points.
  Task    13 has       3849 integration points.
  Task    14 has       3918 integration points.
  Task    15 has       3878 integration points.
  Task    16 has       3871 integration points.
  Task    17 has       3764 integration points.
  Task    18 has       3765 integration points.
  Task    19 has       3858 integration points.
  Task    20 has       3924 integration points.
  Task    21 has       3761 integration points.
  Task    22 has       3846 integration points.
  Task    23 has       3791 integration points.
  Initializing partition tables, free-atom densities, potentials, etc. across the integration grid (initialize_grid_storage).
  | initialize_grid_storage: Actual outermost partition radius vs. multipole_radius_free
  | (-- VB: in principle, multipole_radius_free should be larger, hence this output)
  | Species        1: Confinement radius =              4.999999999999999 AA, multipole_radius_free =              5.004487022111096 AA.
  | Species        1: outer_partition_radius set to              5.004487022111096 AA .
  | Species        2: Confinement radius =              4.999999999999999 AA, multipole_radius_free =              5.009370088163274 AA.
  | Species        2: outer_partition_radius set to              5.009370088163274 AA .
  | The sparse table of interatomic distances needs          1.64 kbyte instead of         1.15 kbyte of memory.
  | Using the partition_type stratmann_smoother will reduce your memory usage.
  | Net number of integration points:    91920
  | of which are non-zero points    :    85758
  Renormalizing the initial density to the exact electron count on the 3D integration grid.
  | Initial density: Formal number of electrons (from input files) :     120.0000000000
  | Integrated number of electrons on 3D grid     :     119.9998978488
  | Charge integration error                      :      -0.0001021512
  | Normalization factor for density and gradient :       1.0000008513
  Renormalizing the free-atom superposition density to the exact electron count on the 3D integration grid.
  | Formal number of electrons (from input files) :     120.0000000000
  | Integrated number of electrons on 3D grid     :     119.9998978488
  | Charge integration error                      :      -0.0001021512
  | Normalization factor for density and gradient :       1.0000008513
  Obtaining max. number of non-zero basis functions in each batch (get_n_compute_maxes).
  | Maximal number of non-zero basis functions:      167 in task     0
  | Maximal number of non-zero basis functions:      163 in task     1
  | Maximal number of non-zero basis functions:      167 in task     2
  | Maximal number of non-zero basis functions:      166 in task     3
  | Maximal number of non-zero basis functions:      170 in task     4
  | Maximal number of non-zero basis functions:      163 in task     5
  | Maximal number of non-zero basis functions:      164 in task     6
  | Maximal number of non-zero basis functions:      163 in task     7
  | Maximal number of non-zero basis functions:      165 in task     8
  | Maximal number of non-zero basis functions:      172 in task     9
  | Maximal number of non-zero basis functions:      171 in task    10
  | Maximal number of non-zero basis functions:      165 in task    11
  | Maximal number of non-zero basis functions:      164 in task    12
  | Maximal number of non-zero basis functions:      158 in task    13
  | Maximal number of non-zero basis functions:      171 in task    14
  | Maximal number of non-zero basis functions:      164 in task    15
  | Maximal number of non-zero basis functions:      163 in task    16
  | Maximal number of non-zero basis functions:      162 in task    17
  | Maximal number of non-zero basis functions:      165 in task    18
  | Maximal number of non-zero basis functions:      160 in task    19
  | Maximal number of non-zero basis functions:      160 in task    20
  | Maximal number of non-zero basis functions:      161 in task    21
  | Maximal number of non-zero basis functions:      165 in task    22
  | Maximal number of non-zero basis functions:      165 in task    23
  Selecting the method for density update.
  Loop over occupied states selected for charge density update.
  Allocating        0.132 MB for KS_eigenvector
  Integrating Hamiltonian matrix: batch-based integration.
  Time summed over all CPUs for integration: real work        0.701 s, elapsed        0.741 s
  Integrating overlap matrix.
  Time summed over all CPUs for integration: real work        0.275 s, elapsed        0.298 s
  Deallocating overlap matrix.

  Updating Kohn-Sham eigenvalues and eigenvectors using ELSI and the ELPA eigensolver.
  Overlap matrix is not singular
  | Lowest and highest eigenvalues :  0.3660E-02,  0.5198E+01
  Finished singularity check of overlap matrix
  | Time :     0.004 s
  Starting ELPA eigensolver
  Finished Cholesky decomposition
  | Time :     0.001 s
  Finished transformation to standard eigenproblem
  | Time :     0.001 s
  Finished solving standard eigenproblem
  | Time :     0.004 s
  Finished back-transformation of eigenvectors
  | Time :     0.000 s

  Obtaining occupation numbers and chemical potential using ELSI.
  | Chemical potential (Fermi level):    -7.75925853 eV
  Writing Kohn-Sham eigenvalues.

  State    Occupation    Eigenvalue [Ha]    Eigenvalue [eV]
      1       2.00000         -55.484778        -1509.81762
      2       2.00000         -55.483976        -1509.79580
      3       2.00000         -55.482515        -1509.75605
      4       2.00000         -24.369602         -663.13060
      5       2.00000         -24.358836         -662.83765
      6       2.00000         -24.358018         -662.81540
      7       2.00000         -24.341370         -662.36238
      8       2.00000         -24.340973         -662.35158
      9       2.00000         -24.340806         -662.34702
     10       2.00000         -24.338223         -662.27674
     11       2.00000         -24.336345         -662.22563
     12       2.00000         -24.335323         -662.19783
     13       2.00000          -3.950159         -107.48930
     14       2.00000          -3.948906         -107.45521
     15       2.00000          -3.947118         -107.40653
     16       2.00000          -2.542981          -69.19804
     17       2.00000          -2.542288          -69.17917
     18       2.00000          -2.541737          -69.16419
     19       2.00000          -2.540868          -69.14053
     20       2.00000          -2.540817          -69.13914
     21       2.00000          -2.539586          -69.10564
     22       2.00000          -2.539282          -69.09737
     23       2.00000          -2.539116          -69.09288
     24       2.00000          -2.538409          -69.07362
     25       2.00000          -1.192992          -32.46296
     26       2.00000          -1.183420          -32.20248
     27       2.00000          -1.173554          -31.93402
     28       2.00000          -1.154666          -31.42006
     29       2.00000          -1.149493          -31.27930
     30       2.00000          -1.147656          -31.22931
     31       2.00000          -1.145037          -31.15804
     32       2.00000          -1.143080          -31.10480
     33       2.00000          -1.140965          -31.04725
     34       2.00000          -0.557659          -15.17467
     35       2.00000          -0.544470          -14.81578
     36       2.00000          -0.539536          -14.68153
     37       2.00000          -0.515804          -14.03574
     38       2.00000          -0.513381          -13.96980
     39       2.00000          -0.508629          -13.84051
     40       2.00000          -0.496610          -13.51346
     41       2.00000          -0.494305          -13.45071
     42       2.00000          -0.490619          -13.35043
     43       2.00000          -0.487209          -13.25763
     44       2.00000          -0.482886          -13.14000
     45       2.00000          -0.481873          -13.11244
     46       2.00000          -0.476896          -12.97701
     47       2.00000          -0.475965          -12.95165
     48       2.00000          -0.475321          -12.93414
     49       2.00000          -0.456860          -12.43180
     50       2.00000          -0.452762          -12.32027
     51       2.00000          -0.451816          -12.29455
     52       2.00000          -0.451647          -12.28995
     53       2.00000          -0.451203          -12.27786
     54       2.00000          -0.449671          -12.23618
     55       2.00000          -0.448276          -12.19821
     56       2.00000          -0.446690          -12.15506
     57       2.00000          -0.445451          -12.12134
     58       2.00000          -0.443522          -12.06885
     59       2.00000          -0.442063          -12.02914
     60       2.00000          -0.439339          -11.95503
     61       0.00000          -0.144796           -3.94010
     62       0.00000          -0.102952           -2.80146
     63       0.00000          -0.080096           -2.17951
     64       0.00000          -0.032783           -0.89208
     65       0.00000          -0.015045           -0.40940
     66       0.00000          -0.003878           -0.10553
     67       0.00000           0.007028            0.19124
     68       0.00000           0.022127            0.60211
     69       0.00000           0.031783            0.86487
     70       0.00000           0.048844            1.32911
     71       0.00000           0.074364            2.02354
     72       0.00000           0.100791            2.74267
     73       0.00000           0.144432            3.93020
     74       0.00000           0.160568            4.36928
     75       0.00000           0.167223            4.55036
     76       0.00000           0.168127            4.57496
     77       0.00000           0.176015            4.78960
     78       0.00000           0.185852            5.05729
     79       0.00000           0.190717            5.18968
     80       0.00000           0.198153            5.39203
     81       0.00000           0.206701            5.62462
     82       0.00000           0.216176            5.88245
     83       0.00000           0.228242            6.21077
     84       0.00000           0.234154            6.37166
     85       0.00000           0.241510            6.57183
     86       0.00000           0.245754            6.68731
     87       0.00000           0.271369            7.38434
     88       0.00000           0.276124            7.51372
     89       0.00000           0.290715            7.91075
     90       0.00000           0.297843            8.10473
     91       0.00000           0.307706            8.37311
     92       0.00000           0.314048            8.54569
     93       0.00000           0.337032            9.17110
     94       0.00000           0.342667            9.32445
     95       0.00000           0.362996            9.87762
     96       0.00000           0.369394           10.05171

  Highest occupied state (VBM) at    -11.95503267 eV
  | Occupation number:      2.00000000

  Lowest unoccupied state (CBM) at    -3.94009919 eV
  | Occupation number:      0.00000000

  Overall HOMO-LUMO gap:      8.01493348 eV.
  Calculating total energy contributions from superposition of free atom densities.

  Total energy components:
  | Sum of eigenvalues            :        -887.26671730 Ha      -24143.75579846 eV
  | XC energy correction          :        -144.29161676 Ha       -3926.37466388 eV
  | XC potential correction       :         187.87355254 Ha        5112.29947555 eV
  | Free-atom electrostatic energy:        -781.66209463 Ha      -21270.10780601 eV
  | Hartree energy correction     :           0.00000000 Ha           0.00000000 eV
  | Entropy correction            :           0.00000000 Ha           0.00000000 eV
  | ---------------------------
  | Total energy                  :       -1625.34687615 Ha      -44227.93879280 eV
  | Total energy, T -> 0          :       -1625.34687615 Ha      -44227.93879280 eV  <-- do not rely on this value for anything but (periodic) metals
  | Electronic free energy        :       -1625.34687615 Ha      -44227.93879280 eV

  Derived energy quantities:
  | Kinetic energy                :        1627.50824461 Ha       44286.75262091 eV
  | Electrostatic energy          :       -3108.56350399 Ha      -84588.31674983 eV
  | Energy correction for multipole
  | error in Hartree potential    :           0.00000000 Ha           0.00000000 eV
  | Sum of eigenvalues per atom                           :       -2011.97964987 eV
  | Total energy (T->0) per atom                          :       -3685.66156607 eV  <-- do not rely on this value for anything but (periodic) metals
  | Electronic free energy per atom                       :       -3685.66156607 eV
  Initialize hartree_potential_storage
  Max. number of atoms included in rho_multipole:           12

  End scf initialization - timings             :  max(cpu_time)    wall_clock(cpu1)
  | Time for scf. initialization                :        0.117 s           0.117 s
  | Boundary condition initialization           :        0.000 s           0.000 s
  | Integration                                 :        0.045 s           0.045 s
  | Solution of K.-S. eqns.                     :        0.011 s           0.011 s
  | Grid partitioning                           :        0.038 s           0.038 s
  | Preloading free-atom quantities on grid     :        0.015 s           0.015 s
  | Free-atom superposition energy              :        0.005 s           0.005 s
  | Total energy evaluation                     :        0.000 s           0.000 s

  Partial memory accounting:
  | Current value for overall tracked memory usage:
  |   Minimum:        0.273 MB (on task 23)
  |   Maximum:        0.292 MB (on task  0)
  |   Average:        0.287 MB
  | Peak value for overall tracked memory usage:
  |   Minimum:        1.301 MB (on task 13 after allocating wave)
  |   Maximum:        1.398 MB (on task  9 after allocating wave)
  |   Average:        1.343 MB
  | Largest tracked array allocation so far:
  |   Minimum:        0.230 MB (H_times_psi on task 13)
  |   Maximum:        0.531 MB (all_coords on task 10)
  |   Average:        0.267 MB
  Note:  These values currently only include a subset of arrays which are explicitly tracked.
  The "true" memory usage will be greater.
------------------------------------------------------------
  Evaluating new KS density.
  Integration grid: deviation in total charge (<rho> - N_e) =   2.842171E-14

  Time for density update prior                :  max(cpu_time)    wall_clock(cpu1)
  | self-consistency iterative process          :        0.029 s           0.028 s

------------------------------------------------------------
          Begin self-consistency iteration #    1

  Date     :  20220517, Time     :  114719.766
------------------------------------------------------------
  Pulay mixing of updated and previous charge densities.
  Renormalizing the density to the exact electron count on the 3D integration grid.
  | Formal number of electrons (from input files) :     120.0000000000
  | Integrated number of electrons on 3D grid     :     120.0000000000
  | Charge integration error                      :       0.0000000000
  | Normalization factor for density and gradient :       1.0000000000

  Evaluating partitioned Hartree potential by multipole expansion.
  | Original multipole sum: apparent total charge =   0.383233E-13
  | Sum of charges compensated after spline to logarithmic grids =   0.118310E-03
  | Analytical far-field extrapolation by fixed multipoles:
  | Hartree multipole sum: apparent total charge =   0.395532E-13
  Summing up the Hartree potential.
  Time summed over all CPUs for potential: real work        0.382 s, elapsed        0.391 s
  | RMS charge density error from multipole expansion :   0.105609E-01

  Integrating Hamiltonian matrix: batch-based integration.
  Time summed over all CPUs for integration: real work        0.662 s, elapsed        0.701 s

  Updating Kohn-Sham eigenvalues and eigenvectors using ELSI and the ELPA eigensolver.
  Starting ELPA eigensolver
  Finished transformation to standard eigenproblem
  | Time :     0.000 s
  Finished solving standard eigenproblem
  | Time :     0.003 s
  Finished back-transformation of eigenvectors
  | Time :     0.000 s

  Obtaining occupation numbers and chemical potential using ELSI.
  | Chemical potential (Fermi level):    -7.84033617 eV
  Writing Kohn-Sham eigenvalues.

  State    Occupation    Eigenvalue [Ha]    Eigenvalue [eV]
      1       2.00000         -55.680638        -1515.14724
      2       2.00000         -55.647770        -1514.25286
      3       2.00000         -55.634058        -1513.87973
      4       2.00000         -24.260966         -660.17446
      5       2.00000         -24.250168         -659.88066
      6       2.00000         -24.246597         -659.78348
      7       2.00000         -24.145917         -657.04384
      8       2.00000         -24.084870         -655.38266
      9       2.00000         -24.064330         -654.82373
     10       2.00000         -24.062764         -654.78112
     11       2.00000         -24.058488         -654.66477
     12       2.00000         -24.056547         -654.61196
     13       2.00000          -4.119340         -112.09294
     14       2.00000          -4.085522         -111.17272
     15       2.00000          -4.072329         -110.81371
     16       2.00000          -2.712736          -73.81729
     17       2.00000          -2.712043          -73.79843
     18       2.00000          -2.711250          -73.77686
     19       2.00000          -2.679156          -72.90353
     20       2.00000          -2.678884          -72.89615
     21       2.00000          -2.676478          -72.83067
     22       2.00000          -2.666478          -72.55855
     23       2.00000          -2.664730          -72.51100
     24       2.00000          -2.663759          -72.48457
     25       2.00000          -1.180658          -32.12734
     26       2.00000          -1.169695          -31.82902
     27       2.00000          -1.156490          -31.46970
     28       2.00000          -1.075203          -29.25775
     29       2.00000          -1.031521          -28.06912
     30       2.00000          -1.012478          -27.55092
     31       2.00000          -1.007810          -27.42390
     32       2.00000          -1.004350          -27.32976
     33       2.00000          -1.000522          -27.22560
     34       2.00000          -0.561201          -15.27106
     35       2.00000          -0.542708          -14.76785
     36       2.00000          -0.531391          -14.45990
     37       2.00000          -0.508539          -13.83804
     38       2.00000          -0.502832          -13.68276
     39       2.00000          -0.476177          -12.95742
     40       2.00000          -0.475943          -12.95106
     41       2.00000          -0.462966          -12.59795
     42       2.00000          -0.453302          -12.33497
     43       2.00000          -0.439255          -11.95274
     44       2.00000          -0.399370          -10.86740
     45       2.00000          -0.390756          -10.63301
     46       2.00000          -0.385324          -10.48520
     47       2.00000          -0.384502          -10.46283
     48       2.00000          -0.376575          -10.24713
     49       2.00000          -0.358562           -9.75698
     50       2.00000          -0.350904           -9.54858
     51       2.00000          -0.341360           -9.28887
     52       2.00000          -0.340191           -9.25706
     53       2.00000          -0.326058           -8.87250
     54       2.00000          -0.325286           -8.85149
     55       2.00000          -0.320018           -8.70814
     56       2.00000          -0.317628           -8.64309
     57       2.00000          -0.316034           -8.59972
     58       2.00000          -0.309895           -8.43266
     59       2.00000          -0.307069           -8.35576
     60       2.00000          -0.305251           -8.30630
     61       0.00000          -0.163363           -4.44535
     62       0.00000          -0.096629           -2.62942
     63       0.00000          -0.089267           -2.42907
     64       0.00000          -0.062516           -1.70114
     65       0.00000          -0.036825           -1.00206
     66       0.00000          -0.025394           -0.69100
     67       0.00000          -0.006500           -0.17687
     68       0.00000           0.012848            0.34961
     69       0.00000           0.024476            0.66602
     70       0.00000           0.036297            0.98769
     71       0.00000           0.048189            1.31130
     72       0.00000           0.082855            2.25460
     73       0.00000           0.131366            3.57466
     74       0.00000           0.152826            4.15861
     75       0.00000           0.157007            4.27237
     76       0.00000           0.163939            4.46102
     77       0.00000           0.178740            4.86375
     78       0.00000           0.182777            4.97363
     79       0.00000           0.187178            5.09338
     80       0.00000           0.195994            5.33327
     81       0.00000           0.207016            5.63318
     82       0.00000           0.208280            5.66759
     83       0.00000           0.212619            5.78566
     84       0.00000           0.220569            6.00198
     85       0.00000           0.229036            6.23238
     86       0.00000           0.233387            6.35079
     87       0.00000           0.245382            6.67719
     88       0.00000           0.262490            7.14273
     89       0.00000           0.273559            7.44391
     90       0.00000           0.288964            7.86311
     91       0.00000           0.299184            8.14120
     92       0.00000           0.313017            8.51763
     93       0.00000           0.331671            9.02523
     94       0.00000           0.344606            9.37721
     95       0.00000           0.362724            9.87023
     96       0.00000           0.368701           10.03287

  Highest occupied state (VBM) at     -8.30629696 eV
  | Occupation number:      2.00000000

  Lowest unoccupied state (CBM) at    -4.44534577 eV
  | Occupation number:      0.00000000

  Overall HOMO-LUMO gap:      3.86095119 eV.

  Total energy components:
  | Sum of eigenvalues            :        -882.16728018 Ha      -24004.99305422 eV
  | XC energy correction          :        -145.63241875 Ha       -3962.85974224 eV
  | XC potential correction       :         189.63615180 Ha        5160.26224173 eV
  | Free-atom electrostatic energy:        -781.66209463 Ha      -21270.10780601 eV
  | Hartree energy correction     :          -5.29935051 Ha        -144.20266444 eV
  | Entropy correction            :           0.00000000 Ha           0.00000000 eV
  | ---------------------------
  | Total energy                  :       -1625.12499227 Ha      -44221.90102517 eV
  | Total energy, T -> 0          :       -1625.12499227 Ha      -44221.90102517 eV  <-- do not rely on this value for anything but (periodic) metals
  | Electronic free energy        :       -1625.12499227 Ha      -44221.90102517 eV

  Derived energy quantities:
  | Kinetic energy                :        1633.87228636 Ha       44459.92700804 eV
  | Electrostatic energy          :       -3113.36485988 Ha      -84718.96829097 eV
  | Energy correction for multipole
  | error in Hartree potential    :           0.03801523 Ha           1.03444691 eV
  | Sum of eigenvalues per atom                           :       -2000.41608785 eV
  | Total energy (T->0) per atom                          :       -3685.15841876 eV  <-- do not rely on this value for anything but (periodic) metals
  | Electronic free energy per atom                       :       -3685.15841876 eV
  Evaluating new KS density.
  Integration grid: deviation in total charge (<rho> - N_e) =   2.842171E-14

  Self-consistency convergence accuracy:
  | Change of charge density      :  0.6045E+00
  | Change of sum of eigenvalues  :  0.1388E+03 eV
  | Change of total energy        :  0.6038E+01 eV


------------------------------------------------------------
  End self-consistency iteration #     1       :  max(cpu_time)    wall_clock(cpu1)
  | Time for this iteration                     :        0.081 s           0.081 s
  | Charge density update                       :        0.027 s           0.027 s
  | Density mixing                              :        0.001 s           0.001 s
  | Hartree multipole update                    :        0.001 s           0.001 s
  | Hartree multipole summation                 :        0.017 s           0.017 s
  | Integration                                 :        0.030 s           0.030 s
  | Solution of K.-S. eqns.                     :        0.004 s           0.004 s
  | Total energy evaluation                     :        0.000 s           0.001 s

  Partial memory accounting:
  | Current value for overall tracked memory usage:
  |   Minimum:        0.273 MB (on task 23)
  |   Maximum:        0.292 MB (on task  0)
  |   Average:        0.287 MB
  | Peak value for overall tracked memory usage:
  |   Minimum:        1.301 MB (on task 13 after allocating wave)
  |   Maximum:        1.398 MB (on task  9 after allocating wave)
  |   Average:        1.343 MB
  | Largest tracked array allocation so far:
  |   Minimum:        0.691 MB (gradient_basis_wave on task 13)
  |   Maximum:        0.752 MB (gradient_basis_wave on task  9)
  |   Average:        0.720 MB
  Note:  These values currently only include a subset of arrays which are explicitly tracked.
  The "true" memory usage will be greater.
------------------------------------------------------------

------------------------------------------------------------
          Begin self-consistency iteration #    2

  Date     :  20220517, Time     :  114719.853
------------------------------------------------------------
  Pulay mixing of updated and previous charge densities.
  Renormalizing the density to the exact electron count on the 3D integration grid.
  | Formal number of electrons (from input files) :     120.0000000000
  | Integrated number of electrons on 3D grid     :     120.0000000000
  | Charge integration error                      :       0.0000000000
  | Normalization factor for density and gradient :       1.0000000000

  Evaluating partitioned Hartree potential by multipole expansion.
  | Original multipole sum: apparent total charge =   0.787374E-13
  | Sum of charges compensated after spline to logarithmic grids =   0.801756E-04
  | Analytical far-field extrapolation by fixed multipoles:
  | Hartree multipole sum: apparent total charge =   0.787128E-13
  Summing up the Hartree potential.
  Time summed over all CPUs for potential: real work        0.380 s, elapsed        0.389 s
  | RMS charge density error from multipole expansion :   0.124020E-01

  Integrating Hamiltonian matrix: batch-based integration.
  Time summed over all CPUs for integration: real work        0.662 s, elapsed        0.701 s

  Updating Kohn-Sham eigenvalues and eigenvectors using ELSI and the ELPA eigensolver.
  Starting ELPA eigensolver
  Finished transformation to standard eigenproblem
  | Time :     0.000 s
  Finished solving standard eigenproblem
  | Time :     0.004 s
  Finished back-transformation of eigenvectors
  | Time :     0.000 s

  Obtaining occupation numbers and chemical potential using ELSI.
  | Chemical potential (Fermi level):    -7.96972131 eV
  Highest occupied state (VBM) at     -9.47316577 eV
  | Occupation number:      2.00000000

  Lowest unoccupied state (CBM) at    -4.67112740 eV
  | Occupation number:      0.00000000

  Overall HOMO-LUMO gap:      4.80203838 eV.

  Checking to see if s.c.f. parameters should be adjusted.

  Total energy components:
  | Sum of eigenvalues            :        -885.38735101 Ha      -24092.61563987 eV
  | XC energy correction          :        -145.12452654 Ha       -3949.03929197 eV
  | XC potential correction       :         188.96797755 Ha        5142.08029542 eV
  | Free-atom electrostatic energy:        -781.66209463 Ha      -21270.10780601 eV
  | Hartree energy correction     :          -1.84991985 Ha         -50.33888024 eV
  | Entropy correction            :           0.00000000 Ha           0.00000000 eV
  | ---------------------------
  | Total energy                  :       -1625.05591447 Ha      -44220.02132268 eV
  | Total energy, T -> 0          :       -1625.05591447 Ha      -44220.02132268 eV  <-- do not rely on this value for anything but (periodic) metals
  | Electronic free energy        :       -1625.05591447 Ha      -44220.02132268 eV

  Derived energy quantities:
  | Kinetic energy                :        1629.91882553 Ha       44352.34786520 eV
  | Electrostatic energy          :       -3109.85021346 Ha      -84623.32989590 eV
  | Energy correction for multipole
  | error in Hartree potential    :           0.04160784 Ha           1.13220705 eV
  | Sum of eigenvalues per atom                           :       -2007.71796999 eV
  | Total energy (T->0) per atom                          :       -3685.00177689 eV  <-- do not rely on this value for anything but (periodic) metals
  | Electronic free energy per atom                       :       -3685.00177689 eV
  Evaluating new KS density.
  Integration grid: deviation in total charge (<rho> - N_e) =   0.000000E+00

  Self-consistency convergence accuracy:
  | Change of charge density      :  0.4939E+00
  | Change of sum of eigenvalues  : -0.8762E+02 eV
  | Change of total energy        :  0.1880E+01 eV


------------------------------------------------------------
  End self-consistency iteration #     2       :  max(cpu_time)    wall_clock(cpu1)
  | Time for this iteration                     :        0.084 s           0.081 s
  | Charge density update                       :        0.027 s           0.028 s
  | Density mixing                              :        0.005 s           0.001 s
  | Hartree multipole update                    :        0.001 s           0.002 s
  | Hartree multipole summation                 :        0.016 s           0.016 s
  | Integration                                 :        0.030 s           0.030 s
  | Solution of K.-S. eqns.                     :        0.004 s           0.004 s
  | Total energy evaluation                     :        0.000 s           0.000 s

  Partial memory accounting:
  | Current value for overall tracked memory usage:
  |   Minimum:        0.274 MB (on task 23)
  |   Maximum:        0.293 MB (on task  0)
  |   Average:        0.288 MB
  | Peak value for overall tracked memory usage:
  |   Minimum:        1.301 MB (on task 13 after allocating wave)
  |   Maximum:        1.398 MB (on task  9 after allocating wave)
  |   Average:        1.343 MB
  | Largest tracked array allocation so far:
  |   Minimum:        0.691 MB (gradient_basis_wave on task 13)
  |   Maximum:        0.752 MB (gradient_basis_wave on task  9)
  |   Average:        0.720 MB
  Note:  These values currently only include a subset of arrays which are explicitly tracked.
  The "true" memory usage will be greater.
------------------------------------------------------------

------------------------------------------------------------
          Begin self-consistency iteration #    3

  Date     :  20220517, Time     :  114719.940
------------------------------------------------------------
  Pulay mixing of updated and previous charge densities.
  Renormalizing the density to the exact electron count on the 3D integration grid.
  | Formal number of electrons (from input files) :     120.0000000000
  | Integrated number of electrons on 3D grid     :     120.0000000000
  | Charge integration error                      :      -0.0000000000
  | Normalization factor for density and gradient :       1.0000000000

  Evaluating partitioned Hartree potential by multipole expansion.
  | Original multipole sum: apparent total charge =  -0.309932E-14
  | Sum of charges compensated after spline to logarithmic grids =   0.105135E-03
  | Analytical far-field extrapolation by fixed multipoles:
  | Hartree multipole sum: apparent total charge =  -0.693656E-14
  Summing up the Hartree potential.
  Time summed over all CPUs for potential: real work        0.380 s, elapsed        0.389 s
  | RMS charge density error from multipole expansion :   0.172111E-01

  Integrating Hamiltonian matrix: batch-based integration.
  Time summed over all CPUs for integration: real work        0.662 s, elapsed        0.700 s

  Updating Kohn-Sham eigenvalues and eigenvectors using ELSI and the ELPA eigensolver.
  Starting ELPA eigensolver
  Finished transformation to standard eigenproblem
  | Time :     0.000 s
  Finished solving standard eigenproblem
  | Time :     0.004 s
  Finished back-transformation of eigenvectors
  | Time :     0.000 s

  Obtaining occupation numbers and chemical potential using ELSI.
  | Chemical potential (Fermi level):    -8.08756962 eV
  Highest occupied state (VBM) at     -9.16536673 eV
  | Occupation number:      2.00000000

  Lowest unoccupied state (CBM) at    -4.95285896 eV
  | Occupation number:      0.00000000

  Overall HOMO-LUMO gap:      4.21250778 eV.

  Total energy components:
  | Sum of eigenvalues            :        -886.49538685 Ha      -24122.76682898 eV
  | XC energy correction          :        -145.08600436 Ha       -3947.99105008 eV
  | XC potential correction       :         188.91606131 Ha        5140.66758262 eV
  | Free-atom electrostatic energy:        -781.66209463 Ha      -21270.10780601 eV
  | Hartree energy correction     :          -0.72752249 Ha         -19.79689422 eV
  | Entropy correction            :           0.00000000 Ha           0.00000000 eV
  | ---------------------------
  | Total energy                  :       -1625.05494701 Ha      -44219.99499668 eV
  | Total energy, T -> 0          :       -1625.05494701 Ha      -44219.99499668 eV  <-- do not rely on this value for anything but (periodic) metals
  | Electronic free energy        :       -1625.05494701 Ha      -44219.99499668 eV

  Derived energy quantities:
  | Kinetic energy                :        1628.13878472 Ha       44303.91049040 eV
  | Electrostatic energy          :       -3108.10772737 Ha      -84575.91443700 eV
  | Energy correction for multipole
  | error in Hartree potential    :           0.05615077 Ha           1.52794031 eV
  | Sum of eigenvalues per atom                           :       -2010.23056908 eV
  | Total energy (T->0) per atom                          :       -3684.99958306 eV  <-- do not rely on this value for anything but (periodic) metals
  | Electronic free energy per atom                       :       -3684.99958306 eV
  Evaluating new KS density.
  Integration grid: deviation in total charge (<rho> - N_e) =   5.684342E-14

  Self-consistency convergence accuracy:
  | Change of charge density      :  0.1294E+00
  | Change of sum of eigenvalues  : -0.3015E+02 eV
  | Change of total energy        :  0.2633E-01 eV


------------------------------------------------------------
  End self-consistency iteration #     3       :  max(cpu_time)    wall_clock(cpu1)
  | Time for this iteration                     :        0.084 s           0.081 s
  | Charge density update                       :        0.027 s           0.028 s
  | Density mixing                              :        0.004 s           0.001 s
  | Hartree multipole update                    :        0.001 s           0.002 s
  | Hartree multipole summation                 :        0.017 s           0.016 s
  | Integration                                 :        0.030 s           0.030 s
  | Solution of K.-S. eqns.                     :        0.004 s           0.004 s
  | Total energy evaluation                     :        0.000 s           0.000 s

  Partial memory accounting:
  | Current value for overall tracked memory usage:
  |   Minimum:        0.274 MB (on task 23)
  |   Maximum:        0.293 MB (on task  0)
  |   Average:        0.288 MB
  | Peak value for overall tracked memory usage:
  |   Minimum:        1.301 MB (on task 13 after allocating wave)
  |   Maximum:        1.398 MB (on task  9 after allocating wave)
  |   Average:        1.343 MB
  | Largest tracked array allocation so far:
  |   Minimum:        0.691 MB (gradient_basis_wave on task 13)
  |   Maximum:        0.752 MB (gradient_basis_wave on task  9)
  |   Average:        0.720 MB
  Note:  These values currently only include a subset of arrays which are explicitly tracked.
  The "true" memory usage will be greater.
------------------------------------------------------------

------------------------------------------------------------
          Begin self-consistency iteration #    4

  Date     :  20220517, Time     :  114720.027
------------------------------------------------------------
  Pulay mixing of updated and previous charge densities.
  Renormalizing the density to the exact electron count on the 3D integration grid.
  | Formal number of electrons (from input files) :     120.0000000000
  | Integrated number of electrons on 3D grid     :     120.0000000000
  | Charge integration error                      :       0.0000000000
  | Normalization factor for density and gradient :       1.0000000000

  Evaluating partitioned Hartree potential by multipole expansion.
  | Original multipole sum: apparent total charge =   0.983910E-16
  | Sum of charges compensated after spline to logarithmic grids =   0.114528E-03
  | Analytical far-field extrapolation by fixed multipoles:
  | Hartree multipole sum: apparent total charge =   0.491955E-15
  Summing up the Hartree potential.
  Time summed over all CPUs for potential: real work        0.380 s, elapsed        0.389 s
  | RMS charge density error from multipole expansion :   0.191750E-01

  Integrating Hamiltonian matrix: batch-based integration.
  Time summed over all CPUs for integration: real work        0.662 s, elapsed        0.704 s

  Updating Kohn-Sham eigenvalues and eigenvectors using ELSI and the ELPA eigensolver.
  Starting ELPA eigensolver
  Finished transformation to standard eigenproblem
  | Time :     0.000 s
  Finished solving standard eigenproblem
  | Time :     0.003 s
  Finished back-transformation of eigenvectors
  | Time :     0.001 s

  Obtaining occupation numbers and chemical potential using ELSI.
  | Chemical potential (Fermi level):    -8.07220761 eV
  Highest occupied state (VBM) at     -9.24281621 eV
  | Occupation number:      2.00000000

  Lowest unoccupied state (CBM) at    -4.91303741 eV
  | Occupation number:      0.00000000

  Overall HOMO-LUMO gap:      4.32977880 eV.

  Total energy components:
  | Sum of eigenvalues            :        -886.62579365 Ha      -24126.31537858 eV
  | XC energy correction          :        -145.06895869 Ha       -3947.52721390 eV
  | XC potential correction       :         188.89301405 Ha        5140.04043480 eV
  | Free-atom electrostatic energy:        -781.66209463 Ha      -21270.10780601 eV
  | Hartree energy correction     :          -0.58872909 Ha         -16.02013372 eV
  | Entropy correction            :           0.00000000 Ha           0.00000000 eV
  | ---------------------------
  | Total energy                  :       -1625.05256200 Ha      -44219.93009741 eV
  | Total energy, T -> 0          :       -1625.05256200 Ha      -44219.93009741 eV  <-- do not rely on this value for anything but (periodic) metals
  | Electronic free energy        :       -1625.05256200 Ha      -44219.93009741 eV

  Derived energy quantities:
  | Kinetic energy                :        1627.48816998 Ha       44286.20636266 eV
  | Electrostatic energy          :       -3107.47177330 Ha      -84558.60924616 eV
  | Energy correction for multipole
  | error in Hartree potential    :           0.06169119 Ha           1.67870281 eV
  | Sum of eigenvalues per atom                           :       -2010.52628155 eV
  | Total energy (T->0) per atom                          :       -3684.99417478 eV  <-- do not rely on this value for anything but (periodic) metals
  | Electronic free energy per atom                       :       -3684.99417478 eV
  Evaluating new KS density.
  Integration grid: deviation in total charge (<rho> - N_e) =   7.105427E-14

  Self-consistency convergence accuracy:
  | Change of charge density      :  0.8606E-01
  | Change of sum of eigenvalues  : -0.3549E+01 eV
  | Change of total energy        :  0.6490E-01 eV


------------------------------------------------------------
  End self-consistency iteration #     4       :  max(cpu_time)    wall_clock(cpu1)
  | Time for this iteration                     :        0.084 s           0.081 s
  | Charge density update                       :        0.027 s           0.027 s
  | Density mixing                              :        0.004 s           0.002 s
  | Hartree multipole update                    :        0.001 s           0.001 s
  | Hartree multipole summation                 :        0.016 s           0.017 s
  | Integration                                 :        0.030 s           0.030 s
  | Solution of K.-S. eqns.                     :        0.004 s           0.004 s
  | Total energy evaluation                     :        0.000 s           0.000 s

  Partial memory accounting:
  | Current value for overall tracked memory usage:
  |   Minimum:        0.274 MB (on task 23)
  |   Maximum:        0.293 MB (on task  0)
  |   Average:        0.288 MB
  | Peak value for overall tracked memory usage:
  |   Minimum:        1.301 MB (on task 13 after allocating wave)
  |   Maximum:        1.398 MB (on task  9 after allocating wave)
  |   Average:        1.343 MB
  | Largest tracked array allocation so far:
  |   Minimum:        0.691 MB (gradient_basis_wave on task 13)
  |   Maximum:        0.752 MB (gradient_basis_wave on task  9)
  |   Average:        0.720 MB
  Note:  These values currently only include a subset of arrays which are explicitly tracked.
  The "true" memory usage will be greater.
------------------------------------------------------------

------------------------------------------------------------
          Begin self-consistency iteration #    5

  Date     :  20220517, Time     :  114720.114
------------------------------------------------------------
  Pulay mixing of updated and previous charge densities.
  Renormalizing the density to the exact electron count on the 3D integration grid.
  | Formal number of electrons (from input files) :     120.0000000000
  | Integrated number of electrons on 3D grid     :     120.0000000000
  | Charge integration error                      :       0.0000000000
  | Normalization factor for density and gradient :       1.0000000000

  Evaluating partitioned Hartree potential by multipole expansion.
  | Original multipole sum: apparent total charge =   0.309440E-13
  | Sum of charges compensated after spline to logarithmic grids =   0.114850E-03
  | Analytical far-field extrapolation by fixed multipoles:
  | Hartree multipole sum: apparent total charge =   0.369458E-13
  Summing up the Hartree potential.
  Time summed over all CPUs for potential: real work        0.380 s, elapsed        0.389 s
  | RMS charge density error from multipole expansion :   0.189675E-01

  Integrating Hamiltonian matrix: batch-based integration.
  Time summed over all CPUs for integration: real work        0.661 s, elapsed        0.700 s

  Updating Kohn-Sham eigenvalues and eigenvectors using ELSI and the ELPA eigensolver.
  Starting ELPA eigensolver
  Finished transformation to standard eigenproblem
  | Time :     0.000 s
  Finished solving standard eigenproblem
  | Time :     0.003 s
  Finished back-transformation of eigenvectors
  | Time :     0.000 s

  Obtaining occupation numbers and chemical potential using ELSI.
  | Chemical potential (Fermi level):    -8.03957070 eV
  Highest occupied state (VBM) at     -9.30417911 eV
  | Occupation number:      2.00000000

  Lowest unoccupied state (CBM) at    -4.84219514 eV
  | Occupation number:      0.00000000

  Overall HOMO-LUMO gap:      4.46198396 eV.

  Total energy components:
  | Sum of eigenvalues            :        -886.42555536 Ha      -24120.86661746 eV
  | XC energy correction          :        -145.06431219 Ha       -3947.40077626 eV
  | XC potential correction       :         188.88709521 Ha        5139.87937482 eV
  | Free-atom electrostatic energy:        -781.66209463 Ha      -21270.10780601 eV
  | Hartree energy correction     :          -0.78753428 Ha         -21.42989809 eV
  | Entropy correction            :           0.00000000 Ha           0.00000000 eV
[...]
   Total forces(   7)            :  0.229476E+01  0.101813E+01  0.326440E+00
  atom #    8
   Hellmann-Feynman              :  0.998069E+00  0.499322E-01  0.427163E+00
   Ionic forces                  :  0.000000E+00  0.000000E+00  0.000000E+00
   Multipole                     :  0.317719E+00  0.519675E-01  0.376472E+00
   Hartree pot. SCF incomplete   :  0.230336E-05  0.100424E-05  0.212611E-05
   Pulay + GGA                   : -0.263529E+01 -0.285802E+00 -0.155162E+01
   ----------------------------------------------------------------
   Total forces(   8)            : -0.131950E+01 -0.183902E+00 -0.747988E+00
  atom #    9
   Hellmann-Feynman              : -0.138522E+00  0.267541E+01  0.347657E+00
   Ionic forces                  :  0.000000E+00  0.000000E+00  0.000000E+00
   Multipole                     :  0.455104E-02  0.648910E+00  0.503358E-01
   Hartree pot. SCF incomplete   : -0.142297E-05  0.493603E-05  0.696111E-06
   Pulay + GGA                   :  0.235842E+00 -0.674527E+01 -0.128149E+01
   ----------------------------------------------------------------
   Total forces(   9)            :  0.101869E+00 -0.342095E+01 -0.883501E+00
  atom #   10
   Hellmann-Feynman              :  0.152490E+01 -0.186349E+01  0.147769E+01
   Ionic forces                  :  0.000000E+00  0.000000E+00  0.000000E+00
   Multipole                     :  0.407640E+00 -0.451772E+00  0.290928E+00
   Hartree pot. SCF incomplete   :  0.262979E-05 -0.398487E-05  0.547778E-05
   Pulay + GGA                   : -0.382989E+01  0.449601E+01 -0.373076E+01
   ----------------------------------------------------------------
   Total forces(  10)            : -0.189735E+01  0.218074E+01 -0.196214E+01
  atom #   11
   Hellmann-Feynman              : -0.217951E+01 -0.679651E+00  0.254350E+01
   Ionic forces                  :  0.000000E+00  0.000000E+00  0.000000E+00
   Multipole                     : -0.363013E+00 -0.155166E+00  0.532950E+00
   Hartree pot. SCF incomplete   : -0.547739E-05 -0.642840E-06  0.232058E-05
   Pulay + GGA                   :  0.452290E+01  0.152308E+01 -0.557933E+01
   ----------------------------------------------------------------
   Total forces(  11)            :  0.198038E+01  0.688259E+00 -0.250287E+01
  atom #   12
   Hellmann-Feynman              :  0.186400E+01  0.502713E+00 -0.266239E+01
   Ionic forces                  :  0.000000E+00  0.000000E+00  0.000000E+00
   Multipole                     :  0.474156E+00  0.122062E+00 -0.657642E+00
   Hartree pot. SCF incomplete   : -0.586235E-06  0.105275E-05 -0.627589E-06
   Pulay + GGA                   : -0.447687E+01 -0.117664E+01  0.602672E+01
   ----------------------------------------------------------------
   Total forces(  12)            : -0.213871E+01 -0.551865E+00  0.270668E+01


  Self-consistency convergence accuracy:
  | Change of charge density      :  0.1403E-05
  | Change of sum of eigenvalues  : -0.7712E-04 eV
  | Change of total energy        :  0.6737E-07 eV
  | Change of forces              :  0.2056E-05 eV/A

  Writing Kohn-Sham eigenvalues.

  State    Occupation    Eigenvalue [Ha]    Eigenvalue [eV]
      1       2.00000         -55.672061        -1514.91385
      2       2.00000         -55.631832        -1513.81916
      3       2.00000         -55.609765        -1513.21869
      4       2.00000         -24.328479         -662.01160
      5       2.00000         -24.324428         -661.90135
      6       2.00000         -24.323551         -661.87750
      7       2.00000         -24.251028         -659.90405
      8       2.00000         -24.236420         -659.50654
      9       2.00000         -24.206429         -658.69046
     10       2.00000         -24.205802         -658.67340
     11       2.00000         -24.197719         -658.45343
     12       2.00000         -24.195974         -658.40595
     13       2.00000          -4.124452         -112.23204
     14       2.00000          -4.083053         -111.10553
     15       2.00000          -4.061486         -110.51866
     16       2.00000          -2.717514          -73.94732
     17       2.00000          -2.716497          -73.91963
     18       2.00000          -2.713960          -73.85061
     19       2.00000          -2.677192          -72.85011
     20       2.00000          -2.675188          -72.79556
     21       2.00000          -2.671327          -72.69050
     22       2.00000          -2.656234          -72.27981
     23       2.00000          -2.652413          -72.17584
     24       2.00000          -2.650585          -72.12609
     25       2.00000          -1.202985          -32.73489
     26       2.00000          -1.194611          -32.50702
     27       2.00000          -1.182674          -32.18220
     28       2.00000          -1.101938          -29.98525
     29       2.00000          -1.083258          -29.47694
     30       2.00000          -1.054138          -28.68456
     31       2.00000          -1.050168          -28.57653
     32       2.00000          -1.041498          -28.34061
     33       2.00000          -1.038347          -28.25486
     34       2.00000          -0.582559          -15.85223
     35       2.00000          -0.564239          -15.35372
     36       2.00000          -0.552988          -15.04758
     37       2.00000          -0.534041          -14.53198
     38       2.00000          -0.525345          -14.29537
     39       2.00000          -0.498121          -13.55457
     40       2.00000          -0.497467          -13.53677
     41       2.00000          -0.490745          -13.35385
     42       2.00000          -0.476751          -12.97306
     43       2.00000          -0.463737          -12.61894
     44       2.00000          -0.442907          -12.05212
     45       2.00000          -0.427597          -11.63549
     46       2.00000          -0.413591          -11.25439
     47       2.00000          -0.410745          -11.17695
     48       2.00000          -0.405504          -11.03432
     49       2.00000          -0.399290          -10.86523
     50       2.00000          -0.389418          -10.59660
     51       2.00000          -0.387571          -10.54636
     52       2.00000          -0.386121          -10.50690
     53       2.00000          -0.363515           -9.89173
     54       2.00000          -0.361618           -9.84012
     55       2.00000          -0.355923           -9.68515
     56       2.00000          -0.353074           -9.60762
     57       2.00000          -0.350892           -9.54826
     58       2.00000          -0.346409           -9.42626
     59       2.00000          -0.344947           -9.38648
     60       2.00000          -0.341027           -9.27982
     61       0.00000          -0.177995           -4.84348
     62       0.00000          -0.108914           -2.96371
     63       0.00000          -0.100029           -2.72194
     64       0.00000          -0.069848           -1.90067
     65       0.00000          -0.043381           -1.18046
     66       0.00000          -0.033346           -0.90739
     67       0.00000          -0.012042           -0.32769
     68       0.00000           0.009551            0.25989
     69       0.00000           0.021573            0.58702
     70       0.00000           0.032157            0.87505
     71       0.00000           0.044951            1.22317
     72       0.00000           0.076035            2.06901
     73       0.00000           0.123905            3.37163
     74       0.00000           0.145365            3.95557
     75       0.00000           0.148092            4.02980
     76       0.00000           0.157304            4.28047
     77       0.00000           0.171943            4.67882
     78       0.00000           0.176201            4.79467
     79       0.00000           0.183706            4.99889
     80       0.00000           0.190913            5.19500
     81       0.00000           0.201021            5.47007
     82       0.00000           0.203228            5.53011
     83       0.00000           0.206927            5.63077
     84       0.00000           0.214838            5.84604
     85       0.00000           0.223794            6.08973
     86       0.00000           0.227136            6.18069
     87       0.00000           0.240604            6.54716
     88       0.00000           0.255377            6.94917
     89       0.00000           0.270072            7.34905
     90       0.00000           0.283540            7.71551
     91       0.00000           0.294911            8.02495
     92       0.00000           0.308386            8.39162
     93       0.00000           0.325058            8.84528
     94       0.00000           0.337901            9.19476
     95       0.00000           0.354403            9.64380
     96       0.00000           0.361245            9.82998

  Highest occupied state (VBM) at     -9.27981727 eV
  | Occupation number:      2.00000000

  Lowest unoccupied state (CBM) at    -4.84348284 eV
  | Occupation number:      0.00000000

  Overall HOMO-LUMO gap:      4.43633444 eV.
  | Chemical Potential                          :    -8.03811647 eV

  Self-consistency cycle converged.


------------------------------------------------------------
  End self-consistency iteration #    13       :  max(cpu_time)    wall_clock(cpu1)
  | Time for this iteration                     :        0.271 s           0.268 s
  | Charge density & force component update     :        0.146 s           0.146 s
  | Density mixing                              :        0.005 s           0.002 s
  | Hartree multipole update                    :        0.001 s           0.001 s
  | Hartree multipole summation                 :        0.050 s           0.050 s
  | Hartree pot. SCF incomplete forces          :        0.033 s           0.034 s
  | Integration                                 :        0.030 s           0.029 s
  | Solution of K.-S. eqns.                     :        0.004 s           0.005 s
  | Total energy evaluation                     :        0.000 s           0.000 s

  Partial memory accounting:
  | Current value for overall tracked memory usage:
  |   Minimum:        0.274 MB (on task 23)
  |   Maximum:        0.293 MB (on task  0)
  |   Average:        0.289 MB
  | Peak value for overall tracked memory usage:
  |   Minimum:        2.858 MB (on task 13 after allocating hessian_basis_wave)
  |   Maximum:        3.062 MB (on task  9 after allocating hessian_basis_wave)
  |   Average:        2.952 MB
  | Largest tracked array allocation so far:
  |   Minimum:        1.381 MB (hessian_basis_wave on task 13)
  |   Maximum:        1.504 MB (hessian_basis_wave on task  9)
  |   Average:        1.440 MB
  Note:  These values currently only include a subset of arrays which are explicitly tracked.
  The "true" memory usage will be greater.
------------------------------------------------------------
  Removing unitary transformations (pure translations, rotations) from forces on atoms.
  Atomic forces before filtering:
  | Net force on center of mass :  -0.740593E-02 -0.164521E-02 -0.146251E-03 eV/A
  | Net torque on center of mass:   0.416780E-02 -0.647302E-02 -0.728316E-02 eV
  Atomic forces after filtering:
  | Net force on center of mass :  -0.713624E-15  0.000000E+00  0.107044E-14 eV/A
  | Net torque on center of mass:   0.000000E+00  0.226580E-14 -0.217139E-14 eV

  Energy and forces in a compact form:
  | Total energy uncorrected      :         -0.442199254265051E+05 eV
  | Total energy corrected        :         -0.442199254265051E+05 eV  <-- do not rely on this value for anything but (periodic) metals
  | Electronic free energy        :         -0.442199254265051E+05 eV
  Total atomic forces (unitary forces cleaned) [eV/Ang]:
  |    1          0.169695134458942E+01          0.499500756830319E+00         -0.204003650270854E+01
  |    2          0.330142550014191E+00          0.441868699509155E+00          0.216832609290213E+01
  |    3         -0.314519036242131E+01         -0.594629679110158E+00         -0.347695896393675E+00
  |    4          0.117632852902014E+01         -0.151640877309458E+00          0.317028660615300E+01
  |    5          0.704931463972326E-01          0.229682370178506E+01          0.256509454166131E+00
  |    6          0.845738934039237E+00         -0.222383760172155E+01         -0.143790230159591E+00
  |    7          0.229557124524989E+01          0.101819550696581E+01          0.326529775277297E+00
  |    8         -0.131888046644044E+01         -0.183414073068221E+00         -0.748164325607489E+00
  |    9          0.102371951266691E+00         -0.342059705441077E+01         -0.883629078788791E+00
  |   10         -0.189626982386995E+01          0.218129717333444E+01         -0.196226553739541E+01
  |   11          0.198113477592638E+01          0.687891909845920E+00         -0.250255780795161E+01
  |   12         -0.213839182377149E+01         -0.551458462650537E+00          0.270648745050656E+01

  ------------------------------------ 
  Start decomposition of the XC Energy 
  ------------------------------------ 
  X and C from original XC functional choice 
  Hartree-Fock Energy :          0.000000000 Ha              0.000000000 eV
  X Energy            :       -140.132128378 Ha          -3813.189226102 eV
  C Energy            :         -4.936739766 Ha           -134.335523951 eV
  Total XC Energy     :       -145.068868144 Ha          -3947.524750053 eV
  ------------------------------------ 
  LDA X and C from self-consistent density 
  X Energy LDA        :       -132.701881359 Ha          -3611.001917544 eV
  C Energy LDA        :         -8.820262445 Ha           -240.011552783 eV
  ------------------------------------ 
  End decomposition of the XC Energy 
  ------------------------------------ 

------------------------------------------------------------

------------------------------------------------------------------------------
  Final output of selected total energy values:

  The following output summarizes some interesting total energy values
  at the end of a run (AFTER all relaxation, molecular dynamics, etc.).

  | Total energy of the DFT / Hartree-Fock s.c.f. calculation      :         -44219.925426505 eV
  | Final zero-broadening corrected energy (caution - metals only) :         -44219.925426505 eV
  | For reference only, the value of 1 Hartree used in FHI-aims is :             27.211384500 eV

  Before relying on these values, please be sure to understand exactly which
  total energy value is referred to by a given number. Different objects may
  all carry the same name 'total energy'. Definitions:

  Total energy of the DFT / Hartree-Fock s.c.f. calculation:
  | Note that this energy does not include ANY quantities calculated after the
  | s.c.f. cycle, in particular not ANY RPA, MP2, etc. many-body perturbation terms.

  Final zero-broadening corrected energy:
  | For metallic systems only, a broadening of the occupation numbers at the Fermi
  | level can be extrapolated back to zero broadening by an electron-gas inspired
  | formula. For all systems that are not real metals, this value can be
  | meaningless and should be avoided.

------------------------------------------------------------------------------
  Methods described in the following list of references were used in this FHI-aims run.
  If you publish the results, please make sure to cite these reference if they apply.
  FHI-aims is an academic code, and for our developers (often, Ph.D. students
  and postdocs), scientific credit in the community is essential.
  Thank you for helping us!

  For any use of FHI-aims, please cite:

    Volker Blum, Ralf Gehrke, Felix Hanke, Paula Havu, Ville Havu,
    Xinguo Ren, Karsten Reuter, and Matthias Scheffler
    'Ab initio molecular simulations with numeric atom-centered orbitals'
    Computer Physics Communications 180, 2175-2196 (2009)
    http://dx.doi.org/10.1016/j.cpc.2009.06.022


  The ELSI infrastructure was used in your run to solve the Kohn-Sham electronic structure.
  Please check out http://elsi-interchange.org to learn more.
  If scalability is important for your project, please acknowledge ELSI by citing:

    V. W-z. Yu, F. Corsetti, A. Garcia, W. P. Huhn, M. Jacquelin, W. Jia,
    B. Lange, L. Lin, J. Lu, W. Mi, A. Seifitokaldani, A. Vazquez-Mayagoitia,
    C. Yang, H. Yang, and V. Blum
    'ELSI: A unified software interface for Kohn-Sham electronic structure solvers'
    Computer Physics Communications 222, 267-285 (2018).
    http://dx.doi.org/10.1016/j.cpc.2017.09.007


  For the real-space grid partitioning and parallelization used in this calculation, please cite:

    Ville Havu, Volker Blum, Paula Havu, and Matthias Scheffler,
    'Efficient O(N) integration for all-electron electronic structure calculation'
    'using numerically tabulated basis functions'
    Journal of Computational Physics 228, 8367-8379 (2009).
    http://dx.doi.org/10.1016/j.jcp.2009.08.008

  Of course, there are many other important community references, e.g., those cited in the
  above references. Our list is limited to references that describe implementations in the
  FHI-aims code. The reason is purely practical (length of this list) - please credit others as well.

------------------------------------------------------------
          Leaving FHI-aims.
          Date     :  20220517, Time     :  114721.321

          Computational steps:
          | Number of self-consistency cycles          :           13
          | Number of SCF (re)initializations          :            1

          Detailed time accounting                     :  max(cpu_time)    wall_clock(cpu1)
          | Total time                                  :        1.921 s           1.987 s
          | Preparation time                            :        0.183 s           0.188 s
          | Boundary condition initalization            :        0.000 s           0.000 s
          | Grid partitioning                           :        0.038 s           0.038 s
          | Preloading free-atom quantities on grid     :        0.015 s           0.015 s
          | Free-atom superposition energy              :        0.005 s           0.005 s
          | Total time for integrations                 :        0.431 s           0.432 s
          | Total time for solution of K.-S. equations  :        0.084 s           0.083 s
          | Total time for density & force components   :        0.622 s           0.622 s
          | Total time for mixing                       :        0.060 s           0.028 s
          | Total time for Hartree multipole update     :        0.017 s           0.019 s
          | Total time for Hartree multipole sum        :        0.282 s           0.281 s
          | Total time for total energy evaluation      :        0.002 s           0.004 s
          | Total time NSC force correction             :        0.066 s           0.067 s
          | Total time for scaled ZORA corrections      :        0.000 s           0.000 s

          Partial memory accounting:
          | Residual value for overall tracked memory usage across tasks:     0.000000 MB (should be 0.000000 MB)
          | Peak values for overall tracked memory usage:
          |   Minimum:        2.858 MB (on task 13 after allocating hessian_basis_wave)
          |   Maximum:        3.062 MB (on task  9 after allocating hessian_basis_wave)
          |   Average:        2.952 MB
          | Largest tracked array allocation:
          |   Minimum:        1.381 MB (hessian_basis_wave on task 13)
          |   Maximum:        1.504 MB (hessian_basis_wave on task  9)
          |   Average:        1.440 MB
          Note:  These values currently only include a subset of arrays which are explicitly tracked.
          The "true" memory usage will be greater.

          Have a nice day.
------------------------------------------------------------
