12
Properties=species:S:1:pos:R:3:forces:R:3 energy=-186.35103317 pbc="F F F"
Al    -1.3979282610000001    2.68362942    -1.233666291    0.0    -0.0    0.0
Al    -0.228647355    0.124766206    -2.350877374    -0.0    -0.0    0.0
Al    -1.8982809760000001    -0.214945918    -0.518774837    0.0    -0.0    -0.0
F    -0.503401541    3.790005636    -0.164694657    -0.0    0.0    -0.0
F    -2.7631742470000002    3.280574993    -2.318531592    -0.0    0.0    -0.0
F    -1.12325148    -1.570716027    -1.7235709609999998    0.0    -0.0    0.0
F    -2.2719549619999997    1.553944083    0.050357562    0.0    0.0    -0.0
F    -2.993252763    -1.198799632    0.5995082530000001    0.0    0.0    -0.0
F    0.875368398    -0.411670341    -3.645563504    -0.0    0.0    0.0
F    -0.08134292500000001    1.999656914    -2.353419031    -0.0    0.0    0.0
F    -2.2008621570000004    0.578655151    -2.307079228    0.0    -0.0    0.0
F    -0.04860636800000001    0.263082239    -0.404198408    0.0    -0.0    0.0
