********************************************************************************
*                       GENERAL UTILITY LATTICE PROGRAM                        *
*                                 Julian Gale                                  *
*                       Curtin Institute for Computation                       *
*                           Department of Chemistry                            *
*                    Curtin University, Western Australia                      *
********************************************************************************
* Version = 5.1.1 * Last modified =  24th November 2018                        *
********************************************************************************
*  optimise     - perform optimisation run                                     *
*  conp         - constant pressure calculation                                *
*  shell        - only shells and radii to be optimised                        *
*  phonon       - calculate phonons for final geometry                         *
*  eigenvectors - output phonon eigenvectors                                   *
********************************************************************************

  Job Started  at 14:38.50 25th May        2022                               

  Number of CPUs =     1

  Host name      = login03                                 


  Total number of configurations input =      1

********************************************************************************
*  Input for Configuration =   1                                               *
********************************************************************************

  Formula = Al3F9                                                       

  Number of irreducible atoms/shells =      21


  Total number atoms/shells =      21

  Dimensionality = 0               :  Cluster


  Charge on cluster =  -0.000000


  Initial cluster dipoles : x =      0.001811 e.Angs
                            y =     -0.006374 e.Angs
                            z =      0.091598 e.Angs

  Temperature of configuration =  0.000     K 

  Symmetry number =      1

  Cartesian coordinates of cluster :

--------------------------------------------------------------------------------
   No.  Atomic       x           y          z         Charge      Occupancy
        Label      (Angs)      (Angs)     (Angs)        (e)         (Frac)  
--------------------------------------------------------------------------------
      1 Al    c      0.3382     -0.5995      1.7387     3.00000    1.000000    
      2 Al    c      2.3572     -1.7919     -0.5124     3.00000    1.000000    
      3 Al    c     -0.8846     -1.8271     -0.9969     3.00000    1.000000    
      4 F     c      3.5190     -0.5627     -1.1746     0.59000    1.000000    
      5 F     c     -1.8129     -0.4973     -1.8153     0.59000    1.000000    
      6 F     c      2.6835     -3.5770     -0.4031     0.59000    1.000000    
      7 F     c     -1.2525     -3.5996     -1.1695     0.59000    1.000000    
      8 F     c      1.9408     -1.3036      1.2003     0.59000    1.000000    
      9 F     c      0.8411     -1.5084     -1.4879     0.59000    1.000000    
     10 F     c      0.1524     -1.1718      3.4496     0.59000    1.000000    
     11 F     c      0.2783      1.1335      1.1799     0.59000    1.000000    
     12 F     c     -0.9191     -1.5620      0.8175     0.59000    1.000000    
     13 F     s      3.5190 *   -0.5627 *   -1.1746 *  -1.59000    1.000000    
     14 F     s     -1.8129 *   -0.4973 *   -1.8153 *  -1.59000    1.000000    
     15 F     s      2.6835 *   -3.5770 *   -0.4031 *  -1.59000    1.000000    
     16 F     s     -1.2525 *   -3.5996 *   -1.1695 *  -1.59000    1.000000    
     17 F     s      1.9408 *   -1.3036 *    1.2003 *  -1.59000    1.000000    
     18 F     s      0.8411 *   -1.5084 *   -1.4879 *  -1.59000    1.000000    
     19 F     s      0.1524 *   -1.1718 *    3.4496 *  -1.59000    1.000000    
     20 F     s      0.2783 *    1.1335 *    1.1799 *  -1.59000    1.000000    
     21 F     s     -0.9191 *   -1.5620 *    0.8175 *  -1.59000    1.000000    
--------------------------------------------------------------------------------


  Brillouin zone sampling points :

--------------------------------------------------------------------------------
  Point number          x          y          z            Weight
--------------------------------------------------------------------------------
        1           0.000000   0.000000   0.000000     1.00000000
--------------------------------------------------------------------------------


********************************************************************************
*  General input information                                                   *
********************************************************************************

  Species output for all configurations : 

--------------------------------------------------------------------------------
  Species    Type    Atomic    Atomic    Charge       Radii (Angs)     Library
                     Number     Mass       (e)     Cova   Ionic  VDW   Symbol
--------------------------------------------------------------------------------
    Al       Core       13      26.98   3.000000   1.350  0.000  2.050          
    F        Core        9      19.00   0.590000   0.710  0.000  1.300          
    F        Shell       9       0.00  -1.590000   0.710  0.000  1.300          
--------------------------------------------------------------------------------


  Accuracy factor for short range sums = 12.000

  Time limit = Infinity

  Maximum range for interatomic potentials =    100000.000000 Angstroms

  General interatomic potentials :

--------------------------------------------------------------------------------
Atom  Types   Potential      Parameter       Value         Units   Cutoffs(Ang)
  1     2                                                            Min /  Max 
--------------------------------------------------------------------------------
Al   c F    s Buckingham    Buckingham A     3760.0008    eV        0.000 10.000
                            Buckingham rho  0.22200000    Ang       
                            Buckingham C     0.0000000    eV*Ang^6  
--------------------------------------------------------------------------------
F    s F    s Buck 4 range  Buck4 A          1127.7000    eV        0.000 12.000
                            Buck4 rho       0.27530000    Ang       
                            Buck4 C          15.830000    eV*Ang^6  
                            Buck4 minimum    2.7900000    Ang       
--------------------------------------------------------------------------------
F    c F    s Spring (c-s)  Spring k 2       20.770000    eV*Ang^-2 0.000  0.800
                            Spring k 4       0.0000000    eV*Ang^-4 
--------------------------------------------------------------------------------

********************************************************************************
*  Output for configuration   1                                                *
********************************************************************************


  Components of energy : 

--------------------------------------------------------------------------------
  Interatomic potentials     =          11.79938981 eV    
  Monopole - monopole (real) =        -182.36868186 eV    
--------------------------------------------------------------------------------
  Total lattice energy       =        -170.56929205 eV    
--------------------------------------------------------------------------------
  Total lattice energy       =          -16457.3293 kJ/mol
--------------------------------------------------------------------------------


  Number of variables =       27

  Maximum number of calculations  =          2000
  Maximum Hessian update interval =            10
  Maximum step size               =   1.000000000
  Maximum parameter tolerance     =   0.000001000
  Maximum function  tolerance     =   0.000010000
  Maximum gradient  tolerance     =   0.000000010
  Maximum gradient  component     =   0.010000000

  Symmetry not applied to optimisation

  Newton-Raphson optimiser to be used

  BFGS hessian update to be used

  Lower half triangular hessian to be used

  Minimiser to switch to RFO
  When gradient norm is less than     0.010000

  Shell only optimisation

  Start of cluster optimisation :

  Cycle:      0 Energy:      -170.569292  Gnorm:      1.356067  CPU:    0.005
  ** Hessian calculated **
  Cycle:      1 Energy:      -186.091350  Gnorm:      0.420591  CPU:    0.006
  ** Hessian calculated **
  Cycle:      2 Energy:      -187.241923  Gnorm:      0.009671  CPU:    0.009
  ** Hessian has required structure
  Cycle:      3 Energy:      -187.242566  Gnorm:      0.003478  CPU:    0.011
  ** Hessian has required structure
  Cycle:      4 Energy:      -187.242646  Gnorm:      0.002056  CPU:    0.013
  ** Hessian has required structure
  Cycle:      5 Energy:      -187.242656  Gnorm:      0.001860  CPU:    0.015
  ** Hessian has required structure
  Cycle:      6 Energy:      -187.242658  Gnorm:      0.001732  CPU:    0.016
  ** Hessian has required structure
  Cycle:      7 Energy:      -187.242658  Gnorm:      0.001722  CPU:    0.018
  ** Hessian has required structure
  Cycle:      8 Energy:      -187.242658  Gnorm:      0.001721  CPU:    0.020
  ** Hessian has required structure
  Cycle:      9 Energy:      -187.242658  Gnorm:      0.001707  CPU:    0.021
  ** Hessian has required structure
  Cycle:     10 Energy:      -187.242659  Gnorm:      0.001677  CPU:    0.023
  ** Hessian has required structure
  Cycle:     11 Energy:      -187.242663  Gnorm:      0.001435  CPU:    0.024
  ** Hessian has required structure
  Cycle:     12 Energy:      -187.242676  Gnorm:      0.000000  CPU:    0.026
  ** Hessian has required structure
  Cycle:     13 Energy:      -187.242676  Gnorm:      0.000000  CPU:    0.028
  ** Hessian has required structure
  Cycle:     14 Energy:      -187.242676  Gnorm:      0.000000  CPU:    0.030
  ** Hessian calculated **

  XYZ File written as 002/1/sp_mod_-30/sp_mod_-30_eig.xyz



  **** Optimisation achieved ****


  Final energy =    -187.24267638 eV
  Final Gnorm  =       0.00000023

  Components of energy : 

--------------------------------------------------------------------------------
  Interatomic potentials     =          37.84497676 eV    
  Monopole - monopole (real) =        -225.08765314 eV    
--------------------------------------------------------------------------------
  Total lattice energy       =        -187.24267638 eV    
--------------------------------------------------------------------------------
  Total lattice energy       =          -18066.0560 kJ/mol
--------------------------------------------------------------------------------

  Final cartesian coordinates of atoms :

--------------------------------------------------------------------------------
   No.  Atomic        x           y          z          Radius
        Label       (Angs)      (Angs)     (Angs)       (Angs) 
--------------------------------------------------------------------------------
     1  Al    c     0.338179   -0.599462    1.738746    0.000000
     2  Al    c     2.357156   -1.791851   -0.512370    0.000000
     3  Al    c    -0.884569   -1.827098   -0.996858    0.000000
     4  F     c     3.518954   -0.562749   -1.174563    0.000000
     5  F     c    -1.812937   -0.497289   -1.815286    0.000000
     6  F     c     2.683473   -3.576983   -0.403137    0.000000
     7  F     c    -1.252495   -3.599620   -1.169540    0.000000
     8  F     c     1.940783   -1.303577    1.200337    0.000000
     9  F     c     0.841106   -1.508373   -1.487919    0.000000
    10  F     c     0.152355   -1.171804    3.449597    0.000000
    11  F     c     0.278308    1.133513    1.179947    0.000000
    12  F     c    -0.919060   -1.561978    0.817517    0.000000
    13  F     s     3.337404   -0.752102   -1.071063    0.000000
    14  F     s    -1.667787   -0.702430   -1.687506    0.000000
    15  F     s     2.629886   -3.301935   -0.417816    0.000000
    16  F     s    -1.193459   -3.325498   -1.140360    0.000000
    17  F     s     1.775263   -1.274259    1.037433    0.000000
    18  F     s     0.811422   -1.590679   -1.278829    0.000000
    19  F     s     0.181226   -1.085115    3.183631    0.000000
    20  F     s     0.288815    0.863693    1.260199    0.000000
    21  F     s    -0.738861   -1.466830    0.694912    0.000000
--------------------------------------------------------------------------------


  Final Cartesian derivatives :

--------------------------------------------------------------------------------
   No.  Atomic          x             y             z           Radius
        Label       (eV/Angs)     (eV/Angs)    (eV/Angs)      (eV/Angs)
--------------------------------------------------------------------------------
      1 Al    c       0.000000      0.000000      0.000000      0.000000
      2 Al    c       0.000000      0.000000      0.000000      0.000000
      3 Al    c       0.000000      0.000000      0.000000      0.000000
      4 F     c       0.000000      0.000000      0.000000      0.000000
      5 F     c       0.000000      0.000000      0.000000      0.000000
      6 F     c       0.000000      0.000000      0.000000      0.000000
      7 F     c       0.000000      0.000000      0.000000      0.000000
      8 F     c       0.000000      0.000000      0.000000      0.000000
      9 F     c       0.000000      0.000000      0.000000      0.000000
     10 F     c       0.000000      0.000000      0.000000      0.000000
     11 F     c       0.000000      0.000000      0.000000      0.000000
     12 F     c       0.000000      0.000000      0.000000      0.000000
     13 F     s      -0.000000     -0.000000      0.000000      0.000000
     14 F     s       0.000002     -0.000003      0.000002      0.000000
     15 F     s       0.000000      0.000000      0.000001      0.000000
     16 F     s       0.000000      0.000003      0.000001      0.000000
     17 F     s      -0.000001     -0.000001     -0.000000      0.000000
     18 F     s      -0.000002      0.000001     -0.000000      0.000000
     19 F     s      -0.000000      0.000001      0.000000      0.000000
     20 F     s       0.000000     -0.000002     -0.000000      0.000000
     21 F     s       0.000001     -0.000000     -0.000001      0.000000
--------------------------------------------------------------------------------
  Maximum abs         0.000002      0.000003      0.000002      0.000000
--------------------------------------------------------------------------------


  Born effective charge tensors : 

-------------------------------------------------------------------------------
  Atom             x           y             z
-------------------------------------------------------------------------------
    1 Al    x       1.4262     -0.0219      0.0340
            y      -0.0212      0.7697      0.4791
            z       0.0363      0.4712      0.9056
-------------------------------------------------------------------------------
    2 Al    x       1.2945     -0.2087      0.1016
            y      -0.2134      0.4809      0.2376
            z       0.0953      0.2391      1.3365
-------------------------------------------------------------------------------
    3 Al    x       1.3360      0.1445     -0.0797
            y       0.1473      0.4482      0.2082
            z      -0.0759      0.2111      1.3308
-------------------------------------------------------------------------------
    4 F     x      -0.3454      0.2892     -0.1304
            y       0.2450     -0.2544     -0.1515
            z      -0.1221     -0.1644     -0.4747
-------------------------------------------------------------------------------
    5 F     x      -0.4248     -0.2478      0.1160
            y      -0.2086     -0.2099     -0.1964
            z       0.1113     -0.2218     -0.4461
-------------------------------------------------------------------------------
    6 F     x      -0.5798     -0.1037      0.0183
            y      -0.0600      0.0304     -0.0604
            z       0.0110     -0.0397     -0.5454
-------------------------------------------------------------------------------
    7 F     x      -0.5608      0.1187     -0.0098
            y       0.0845      0.0266      0.0197
            z      -0.0077      0.0511     -0.5525
-------------------------------------------------------------------------------
    8 F     x      -0.3514      0.0153     -0.0138
            y       0.0038     -0.2630     -0.0334
            z      -0.0076     -0.0458     -0.3203
-------------------------------------------------------------------------------
    9 F     x      -0.3372      0.0078     -0.0001
            y       0.0044     -0.2526     -0.0415
            z       0.0012     -0.0374     -0.3539
-------------------------------------------------------------------------------
   10 F     x      -0.5503      0.0254     -0.0558
            y       0.0201     -0.4756     -0.1839
            z      -0.0527     -0.2320     -0.0365
-------------------------------------------------------------------------------
   11 F     x      -0.5518     -0.0154      0.0111
            y      -0.0069     -0.0400     -0.2472
            z       0.0071     -0.1891     -0.5262
-------------------------------------------------------------------------------
   12 F     x      -0.3553     -0.0034      0.0086
            y       0.0051     -0.2602     -0.0303
            z       0.0038     -0.0422     -0.3175
-------------------------------------------------------------------------------




  Moment of inertia tensor (10^-46 x kgm^2): 

-------------------------------------------------------------------------------
                x           y           z           Principal axis system
-------------------------------------------------------------------------------
       x        154.07        3.59       -1.69          153.793659
       y          3.59      202.01      -24.04          155.428356
       z         -1.69      -24.04      167.82          214.675659
-------------------------------------------------------------------------------
  Centre of mass (Ang) =     0.603452    -1.405656     0.069598
-------------------------------------------------------------------------------


  Vibrational Frequency Calculation : 

--------------------------------------------------------------------------------

  Frequencies (cm-1) and Eigenvectors : 

  Frequency      -0.0000   -0.0000   -0.0000   11.3547   14.8109   15.9374
  IR Intensity    0.0000    0.0000    0.0000    0.0000    0.0000    0.0000
     in X         0.0000    0.0000    0.0000    0.0000    0.0000    0.0000
     in Y         0.0000    0.0000    0.0000    0.0000    0.0000    0.0000
     in Z         0.0000    0.0000    0.0000    0.0000    0.0000    0.0000
  Raman Intsty    0.0000    0.0000    0.0000    0.0001    0.0000    0.0001

     1 x       0.326448 -0.010323  0.020343  0.264183 -0.047932  0.007399
     1 y      -0.022299 -0.082841  0.315799  0.014346  0.008789  0.287427
     1 z       0.004813  0.316417  0.083343  0.032651 -0.016171 -0.139510
     2 x       0.326448 -0.010323  0.020343 -0.095912  0.033040 -0.005349
     2 y      -0.022299 -0.082841  0.315799 -0.056280  0.261877 -0.151069
     2 z       0.004813  0.316417  0.083343 -0.247941 -0.067124  0.081793
     3 x       0.326448 -0.010323  0.020343 -0.166643  0.014376 -0.001797
     3 y      -0.022299 -0.082841  0.315799  0.041829 -0.270900 -0.134134
     3 z       0.004813  0.316417  0.083343  0.216755  0.086206  0.057467
     4 x       0.273949 -0.008663  0.017071 -0.131324 -0.172671  0.035615
     4 y      -0.018713 -0.069519  0.265013 -0.067184  0.388197 -0.256053
     4 z       0.004039  0.265531  0.069940 -0.334358 -0.095683 -0.100734
     5 x       0.273949 -0.008663  0.017071 -0.208440 -0.203431  0.039784
     5 y      -0.018713 -0.069519  0.265013  0.048159 -0.389201 -0.191958
     5 z       0.004039  0.265531  0.069940  0.281017  0.054171 -0.127554
     6 x       0.273949 -0.008663  0.017071 -0.106606  0.289910 -0.056646
     6 y      -0.018713 -0.069519  0.265013 -0.055375  0.266845 -0.120303
     6 z       0.004039  0.265531  0.069940 -0.264149 -0.074804  0.332442
     7 x       0.273949 -0.008663  0.017071 -0.196568  0.255159 -0.050531
     7 y      -0.018713 -0.069519  0.265013  0.041294 -0.285728 -0.124324
     7 z       0.004039  0.265531  0.069940  0.238427  0.151628  0.273681
     8 x       0.273949 -0.008663  0.017071  0.131117  0.012917 -0.001217
     8 y      -0.018713 -0.069519  0.265013 -0.058338  0.141282  0.139891
     8 z       0.004039  0.265531  0.069940 -0.152344 -0.035958 -0.006670
     9 x       0.273949 -0.008663  0.017071 -0.191095 -0.050641  0.010688
     9 y      -0.018713 -0.069519  0.265013 -0.004197  0.003698 -0.227956
     9 z       0.004039  0.265531  0.069940 -0.024344  0.002217  0.015650
    10 x       0.273949 -0.008663  0.017071  0.402082  0.074646 -0.013306
    10 y      -0.018713 -0.069519  0.265013  0.037042  0.056029  0.494163
    10 z       0.004039  0.265531  0.069940  0.055328  0.015091 -0.034756
    11 x       0.273949 -0.008663  0.017071  0.222044 -0.235586  0.035315
    11 y      -0.018713 -0.069519  0.265013  0.008130 -0.021594  0.162038
    11 z       0.004039  0.265531  0.069940  0.014797 -0.083277 -0.366275
    12 x       0.273949 -0.008663  0.017071  0.076850  0.030312 -0.000004
    12 y      -0.018713 -0.069519  0.265013  0.050594 -0.159248  0.121852
    12 z       0.004039  0.265531  0.069940  0.183881  0.063147  0.014514


  Frequency      27.2989   34.5475   43.5107  123.2656  146.3180  149.7775
  IR Intensity    0.0011    0.0006    0.0024    0.0003    0.0088    0.0082
     in X         0.0003    0.0002    0.0000    0.0003    0.0017    0.0063
     in Y         0.0002    0.0000    0.0018    0.0000    0.0007    0.0004
     in Z         0.0006    0.0003    0.0006    0.0000    0.0064    0.0015
  Raman Intsty    0.0054    0.0092    0.0421    0.0060    0.0351    0.0000

     1 x      -0.025959 -0.010169  0.019266  0.048299  0.017052 -0.073910
     1 y       0.017387 -0.034246  0.048303  0.003688  0.160699  0.086446
     1 z       0.033381 -0.039164  0.029309  0.000687 -0.002812 -0.013680
     2 x       0.013218 -0.019824 -0.053085 -0.009912 -0.032903 -0.037955
     2 y       0.022641  0.018183 -0.003719  0.009390 -0.020289 -0.187683
     2 z      -0.035070  0.028650 -0.037875  0.021819 -0.084652 -0.000195
     3 x       0.024246  0.039669  0.042117 -0.013761  0.080615 -0.021818
     3 y      -0.032126  0.016313 -0.013757 -0.010048 -0.157043  0.072370
     3 z      -0.027314  0.029637 -0.029047 -0.018228 -0.040662 -0.048974
     4 x       0.062256  0.194095  0.175569 -0.182412  0.138308 -0.076730
     4 y      -0.181204 -0.167453 -0.187264 -0.039499  0.064984 -0.062358
     4 z      -0.310967  0.058444  0.015220 -0.374647  0.371947  0.115527
     5 x       0.078384 -0.153300 -0.225505 -0.258401 -0.078991 -0.245541
     5 y       0.065974  0.060345 -0.313429  0.005524 -0.013202  0.033204
     5 z       0.060169  0.313499 -0.216122  0.286387  0.335491  0.163542
     6 x      -0.090596 -0.338540 -0.373161  0.115349 -0.141917  0.256799
     6 y       0.022921 -0.048228 -0.066268  0.049756 -0.051981 -0.101808
     6 z       0.357738 -0.023864 -0.065391  0.323828 -0.271330  0.141142
     7 x      -0.095791  0.229891  0.409405  0.179963 -0.080401  0.328726
     7 y       0.004179  0.005327 -0.114147 -0.023951 -0.108209  0.019012
     7 z      -0.084466 -0.302499  0.215584 -0.269834 -0.017844 -0.341566
     8 x       0.109903  0.073543 -0.001279  0.073924 -0.048465 -0.245173
     8 y       0.490643  0.062804  0.062413  0.001940  0.109621 -0.198916
     8 z      -0.154857  0.046765 -0.041294  0.053332 -0.124954 -0.074342
     9 x       0.020536 -0.000137 -0.011113 -0.005318  0.046458  0.017587
     9 y      -0.125110  0.350523  0.350909 -0.002918 -0.298082 -0.159061
     9 z      -0.082392  0.066762 -0.015297  0.016521 -0.328686 -0.084475
    10 x       0.181626  0.065954 -0.017657 -0.469659 -0.244569  0.445019
    10 y      -0.266246  0.233339 -0.169593 -0.044184  0.169940  0.143410
    10 z      -0.042632  0.061403 -0.048324 -0.070779 -0.022229  0.065515
    11 x      -0.397950 -0.201527  0.104491  0.446330  0.057010 -0.138345
    11 y       0.089261 -0.133511  0.123847  0.035223  0.227816  0.121514
    11 z       0.308453 -0.346247  0.279036  0.057678  0.276751  0.144612
    12 x       0.117922  0.118491 -0.070638  0.070878  0.275392 -0.183041
    12 y      -0.109833 -0.363443  0.276796  0.014500 -0.081066  0.239404
    12 z      -0.016485  0.102951 -0.078590 -0.027582 -0.066466 -0.055061


  Frequency     159.5828  163.1794  177.1509  189.6193  198.0061  218.3706
  IR Intensity    0.0013    0.0050    0.0060    0.0068    0.0112    0.0134
     in X         0.0013    0.0000    0.0002    0.0010    0.0098    0.0014
     in Y         0.0000    0.0044    0.0010    0.0020    0.0000    0.0002
     in Z         0.0000    0.0006    0.0048    0.0038    0.0014    0.0118
  Raman Intsty    0.0938    0.0277    0.0311    0.0284    0.0046    0.0002

     1 x       0.139434 -0.002866 -0.017724 -0.034652  0.194361  0.115996
     1 y      -0.001188 -0.053602  0.010534  0.162469  0.105722 -0.174500
     1 z       0.000021  0.144844 -0.061675 -0.150413 -0.034870  0.212868
     2 x      -0.064320 -0.115950 -0.084284  0.034925 -0.018447 -0.063092
     2 y       0.063566 -0.030886  0.007903 -0.051533 -0.310327  0.023834
     2 z       0.112818 -0.026289 -0.051660  0.106529  0.150685 -0.122166
     3 x      -0.048320  0.117718  0.075833 -0.050345 -0.015848 -0.134816
     3 y      -0.061179 -0.031173  0.070105 -0.253614  0.206176  0.155759
     3 z      -0.122401 -0.036600 -0.015619  0.152215 -0.051531  0.165985
     4 x      -0.189361 -0.404584 -0.171057 -0.177465 -0.384415  0.072237
     4 y       0.270677  0.126230  0.214627  0.104574  0.020054  0.019896
     4 z       0.262718 -0.268037  0.168810  0.009891  0.051741  0.112572
     5 x      -0.209502  0.384812  0.099447  0.379014 -0.199010 -0.016704
     5 y      -0.245212  0.074627  0.245361  0.066264  0.037290 -0.005157
     5 z      -0.226627 -0.183730  0.243267  0.133452 -0.079217 -0.210489
     6 x      -0.293502 -0.281452 -0.242224 -0.182502  0.126994 -0.076156
     6 y       0.020662 -0.060978 -0.005268 -0.107883 -0.277170  0.021034
     6 z       0.264240  0.006340  0.290394 -0.247739 -0.212359 -0.087808
     7 x      -0.272922  0.230834  0.276777  0.109334  0.151834  0.287457
     7 y       0.013977 -0.056150 -0.018628 -0.218850  0.137396  0.090634
     7 z      -0.300694 -0.025969  0.348786 -0.296977  0.111767 -0.177316
     8 x       0.183228 -0.081942 -0.073040  0.056278  0.277302  0.200132
     8 y       0.043821 -0.178199 -0.045546  0.193286  0.082851  0.340863
     8 z       0.155388  0.041738 -0.060409  0.040586  0.155584 -0.129947
     9 x      -0.019551  0.030840  0.041746 -0.074040  0.061163 -0.104729
     9 y      -0.039080  0.036906 -0.102509 -0.053215 -0.018360 -0.424728
     9 z      -0.007766 -0.181208 -0.298288  0.354015  0.126906 -0.075838
    10 x       0.330550  0.004813  0.079067  0.075659 -0.162482 -0.150876
    10 y      -0.047485  0.343623 -0.354814 -0.136465 -0.082162  0.053605
    10 z       0.007224  0.259668 -0.166193 -0.218864 -0.128572  0.246009
    11 x       0.234573 -0.028607  0.049447  0.108904 -0.349978  0.045335
    11 y      -0.006919 -0.012519 -0.075621  0.189989  0.073573 -0.267268
    11 z      -0.032150  0.253281 -0.341969 -0.015490 -0.047445 -0.132251
    12 x       0.204558  0.146594 -0.028973 -0.235514  0.287850 -0.159087
    12 y      -0.011871 -0.135713  0.036886  0.132321  0.024657  0.165052
    12 z      -0.110937  0.000258 -0.030731  0.112033 -0.055009  0.149189


  Frequency     223.1791  234.3128  244.2153  258.5807  265.0170  319.3959
  IR Intensity    0.0176    0.0587    0.1343    0.0717    0.0176    0.0000
     in X         0.0084    0.0558    0.0160    0.0594    0.0046    0.0000
     in Y         0.0011    0.0010    0.0490    0.0002    0.0021    0.0000
     in Z         0.0080    0.0018    0.0692    0.0121    0.0108    0.0000
  Raman Intsty    0.0031    0.0001    0.0180    0.1065    0.1400    0.0094

     1 x      -0.203957  0.319355  0.075875 -0.083818  0.021222  0.029017
     1 y      -0.079050  0.065631 -0.343286  0.067599  0.025939 -0.052088
     1 z       0.086647  0.038098 -0.201448  0.090177  0.258795 -0.216597
     2 x       0.169093  0.124274  0.179954  0.247806 -0.261560 -0.151753
     2 y       0.150634  0.109455 -0.140631 -0.191383 -0.102477  0.021980
     2 z       0.314284 -0.163600 -0.147305 -0.043295  0.024387  0.085060
     3 x       0.228553  0.068905  0.010951  0.347261  0.098175  0.117126
     3 y      -0.000654 -0.078089 -0.085299  0.113757 -0.211268  0.038820
     3 z      -0.205372  0.201121 -0.171159  0.197668 -0.007404  0.119541
     4 x      -0.004732  0.138789 -0.055999 -0.148276 -0.152008 -0.060614
     4 y      -0.025113  0.116882  0.231272  0.194149 -0.178769 -0.120180
     4 z      -0.302653 -0.107081  0.118824 -0.037529  0.093449  0.030579
     5 x      -0.166791  0.060830 -0.034690 -0.065995  0.182446  0.024935
     5 y      -0.024474 -0.141306  0.111557 -0.308810 -0.059714 -0.114198
     5 z       0.203882  0.096176  0.194675 -0.003641  0.148794  0.005515
     6 x      -0.219258 -0.202595 -0.031550 -0.056976  0.251921  0.076475
     6 y       0.034459  0.057810 -0.159574 -0.249012 -0.010193  0.065157
     6 z      -0.291177  0.124349  0.173161  0.002931 -0.053282 -0.027413
     7 x      -0.071042 -0.115949 -0.102634 -0.174204 -0.174480 -0.043706
     7 y       0.034291  0.004405 -0.091554  0.257195 -0.146286  0.098978
     7 z       0.074901 -0.181561  0.147965 -0.089905 -0.113077 -0.025897
     8 x       0.006638  0.087399  0.253692 -0.248671  0.029626  0.355108
     8 y       0.066568 -0.443964  0.131704  0.134676  0.208085 -0.011977
     8 z       0.273936  0.055999 -0.173800 -0.314373 -0.001821  0.338097
     9 x       0.258956  0.012045  0.041840  0.251756 -0.025284  0.074257
     9 y      -0.272377 -0.063792  0.182613  0.128575  0.378426  0.057055
     9 z      -0.011029 -0.025125  0.141464 -0.056294 -0.274075 -0.495930
    10 x       0.105075 -0.201772 -0.057436 -0.073363 -0.017555  0.022180
    10 y       0.003317 -0.048103  0.324071 -0.079699 -0.092051  0.081226
    10 z       0.142020 -0.055126  0.000646  0.044623  0.223547 -0.206358
    11 x      -0.017437 -0.425524 -0.059681  0.061849 -0.011791 -0.013944
    11 y      -0.122997  0.008219 -0.216195  0.020206 -0.123418  0.060398
    11 z      -0.097245 -0.055938  0.207338 -0.080777 -0.213968  0.138923
    12 x      -0.122216  0.036022 -0.271446 -0.155344  0.086531 -0.428006
    12 y       0.221804  0.394263  0.164407 -0.085330  0.366880 -0.126839
    12 z      -0.225671  0.058196 -0.190727  0.243547 -0.138195  0.256778


  Frequency     459.2591  501.6775  506.0292  607.5383  611.3844  642.8401
  IR Intensity    0.0003    0.0227    0.0167    0.0685    0.0698    0.0001
     in X         0.0001    0.0001    0.0161    0.0008    0.0691    0.0000
     in Y         0.0000    0.0023    0.0004    0.0006    0.0003    0.0000
     in Z         0.0002    0.0203    0.0001    0.0672    0.0004    0.0001
  Raman Intsty    4.4214    0.0949    0.1953    0.0118    0.1667    0.0000

     1 x       0.055684  0.033435 -0.428041  0.147089  0.510805 -0.317576
     1 y      -0.185224 -0.132435 -0.035794 -0.065539  0.054948 -0.027721
     1 z      -0.199168 -0.131153 -0.060300 -0.044783  0.081258 -0.048048
     2 x      -0.267578  0.226134  0.046773  0.208670 -0.026473  0.127832
     2 y       0.092013  0.019871 -0.076511  0.051224  0.052147  0.064988
     2 z       0.086342  0.326993 -0.251207  0.423285  0.160397  0.338777
     3 x       0.234021 -0.304166 -0.021517 -0.288000  0.154367  0.173035
     3 y       0.071995 -0.004266  0.051631  0.008809 -0.037743 -0.041128
     3 z       0.151771  0.249139  0.273035  0.282905 -0.304383 -0.266867
     4 x      -0.194077  0.073009  0.175614 -0.060012  0.132838 -0.000577
     4 y      -0.244688  0.095009  0.185266 -0.048356  0.118990 -0.000946
     4 z       0.117998 -0.090583 -0.076099  0.004687 -0.080857  0.003177
     5 x       0.144601 -0.048458  0.155621  0.089653  0.071822  0.008925
     5 y      -0.250927  0.112103 -0.209045 -0.094431 -0.097887 -0.006761
     5 z       0.135703 -0.098463  0.108741  0.053191  0.084502  0.000943
     6 x      -0.031066  0.012949  0.057063 -0.024895  0.051159  0.009912
     6 y       0.306618 -0.144459 -0.266144  0.058705 -0.210296 -0.042257
     6 z      -0.029628 -0.029487  0.038475 -0.024226 -0.000976  0.006892
     7 x       0.040866 -0.005803  0.069657  0.044479  0.032615  0.018950
     7 y       0.306482 -0.143687  0.278285  0.116449  0.155994  0.065504
     7 z       0.014217 -0.046393  0.005452  0.003878  0.037071  0.003345
     8 x      -0.158798 -0.321828  0.098000  0.120005 -0.318531  0.294606
     8 y       0.028086  0.139485  0.041945 -0.106575  0.141280 -0.180042
     8 z      -0.177854  0.073054  0.322217 -0.328645  0.152678 -0.342409
     9 x      -0.025867  0.041271 -0.331462 -0.058629 -0.486361 -0.464757
     9 y      -0.093723  0.103523 -0.001788  0.055433 -0.019544 -0.001746
     9 z       0.218456 -0.294734 -0.051130 -0.170140 -0.035495 -0.078047
    10 x       0.029363  0.030500  0.047116 -0.028388 -0.020097 -0.005304
    10 y       0.125460  0.105403  0.006822 -0.049374  0.006447 -0.002613
    10 z      -0.298924 -0.288253 -0.001953  0.198681 -0.040042  0.010279
    11 x       0.002957  0.011087  0.043440 -0.015478 -0.021339 -0.008031
    11 y      -0.246746 -0.317873 -0.000748  0.240973 -0.047173  0.004960
    11 z       0.106362  0.094957  0.006659 -0.062845  0.008264 -0.001891
    12 x       0.165654  0.260417  0.164924 -0.147480 -0.203202  0.166186
    12 y       0.094720  0.189715  0.037709 -0.166262 -0.130453  0.168501
    12 z      -0.132738  0.149649 -0.306519 -0.462737 -0.050397  0.369277


  Frequency     690.5077  696.5168  717.2646  808.6603  812.2295  816.4120
  IR Intensity    0.0719    0.0648    0.0012    0.0001    0.0031    0.0018
     in X         0.0042    0.0613    0.0000    0.0000    0.0000    0.0000
     in Y         0.0240    0.0001    0.0000    0.0000    0.0026    0.0009
     in Z         0.0436    0.0034    0.0012    0.0000    0.0004    0.0009
  Raman Intsty    0.0297    0.0710    0.0109    0.0009    0.0003    0.0392

     1 x      -0.082275 -0.006234  0.048589 -0.017147 -0.006084 -0.036404
     1 y       0.389053 -0.056078 -0.344949 -0.089313 -0.031915 -0.470983
     1 z       0.381240 -0.057610 -0.234646  0.081855  0.042842  0.565013
     2 x      -0.235672 -0.413970 -0.392588 -0.087339  0.199800  0.054730
     2 y       0.111257  0.136163  0.180210 -0.402854  0.552399  0.002220
     2 z       0.133928  0.116709  0.131587  0.112639 -0.164441 -0.036767
     3 x       0.108764 -0.391864  0.372465 -0.085778 -0.115087 -0.026378
     3 y       0.066676 -0.116097  0.139547  0.573258  0.395390 -0.147322
     3 z       0.145820 -0.250810  0.270182 -0.137173 -0.113819 -0.023811
     4 x       0.118838  0.198851  0.145680  0.166814 -0.250684 -0.021715
     4 y       0.116207  0.192918  0.130736  0.186515 -0.276728 -0.020602
     4 z      -0.067453 -0.110080 -0.080349 -0.097504  0.144240  0.009674
     5 x      -0.054791  0.169362 -0.137611  0.188559  0.142408 -0.027938
     5 y       0.072899 -0.222712  0.171113 -0.283989 -0.211391  0.049031
     5 z      -0.049118  0.146317 -0.120941  0.167289  0.125603 -0.027963
     6 x       0.042765  0.058889  0.067375 -0.043722  0.055533 -0.003280
     6 y      -0.201509 -0.266560 -0.270777  0.269447 -0.361744  0.003890
     6 z       0.007653  0.011599  0.011131 -0.017460  0.027956  0.000629
     7 x      -0.031822  0.068327 -0.071291 -0.069020 -0.045317  0.021400
     7 y      -0.141028  0.284831 -0.266889 -0.369446 -0.247509  0.101265
     7 z      -0.018476  0.035494 -0.036341 -0.030994 -0.016986  0.009858
     8 x       0.223185  0.045621 -0.046232  0.006219 -0.008596 -0.004832
     8 y      -0.130714 -0.039922  0.011495  0.007401 -0.006502  0.014960
     8 z      -0.217114 -0.118130 -0.059530 -0.008155  0.017111  0.005192
     9 x       0.037271  0.385891 -0.022191 -0.038432  0.006394  0.007612
     9 y      -0.014166  0.004866 -0.039981 -0.003368 -0.018483  0.008681
     9 z       0.038804  0.053394  0.069206 -0.006385  0.004039 -0.007624
    10 x       0.038557 -0.003640 -0.015671  0.008700  0.003029  0.048369
    10 y       0.099150 -0.013441 -0.030287  0.026353  0.011567  0.161249
    10 z      -0.344027  0.048695  0.135840 -0.073706 -0.033593 -0.452977
    11 x       0.013750 -0.001875 -0.011836 -0.003528 -0.000371 -0.011468
    11 y      -0.344900  0.045352  0.283828  0.071569  0.023895  0.398951
    11 z       0.096167 -0.012304 -0.070113 -0.024423 -0.008323 -0.144518
    12 x      -0.138483  0.046264  0.057857  0.011137  0.003907  0.001446
    12 y      -0.131581  0.057582  0.040781 -0.001113 -0.004494  0.016726
    12 z      -0.234095  0.173464 -0.048052  0.023033  0.020486  0.006623




--------------------------------------------------------------------------------
  Vibrational properties (for cluster):  Temperature  =       0.000 K
--------------------------------------------------------------------------------
  Zero point energy            =        0.684747 eV
--------------------------------------------------------------------------------

  Phonon density of states : 

--------------------------------------------------------------------------------
 Frequency (cm-1) Density of States                                             
--------------------------------------------------------------------------------
    0.00000 |********************                                          0.030
   12.75644 |****************************************                      0.061
   25.51288 |****************************************                      0.061
   38.26932 |********************                                          0.030
   51.02576 |                                                              0.000
   63.78220 |                                                              0.000
   76.53863 |                                                              0.000
   89.29507 |                                                              0.000
  102.05151 |                                                              0.000
  114.80795 |********************                                          0.030
  127.56439 |                                                              0.000
  140.32083 |****************************************                      0.061
  153.07727 |****************************************                      0.061
  165.83371 |********************                                          0.030
  178.59015 |********************                                          0.030
  191.34659 |********************                                          0.030
  204.10302 |                                                              0.000
  216.85946 |****************************************                      0.061
  229.61590 |********************                                          0.030
  242.37234 |********************                                          0.030
  255.12878 |****************************************                      0.061
  267.88522 |                                                              0.000
  280.64166 |                                                              0.000
  293.39810 |                                                              0.000
  306.15454 |                                                              0.000
  318.91098 |********************                                          0.030
  331.66741 |                                                              0.000
  344.42385 |                                                              0.000
  357.18029 |                                                              0.000
  369.93673 |                                                              0.000
  382.69317 |                                                              0.000
  395.44961 |                                                              0.000
  408.20605 |                                                              0.000
  420.96249 |                                                              0.000
  433.71893 |                                                              0.000
  446.47537 |                                                              0.000
  459.23181 |********************                                          0.030
  471.98824 |                                                              0.000
  484.74468 |                                                              0.000
  497.50112 |****************************************                      0.061
  510.25756 |                                                              0.000
  523.01400 |                                                              0.000
  535.77044 |                                                              0.000
  548.52688 |                                                              0.000
  561.28332 |                                                              0.000
  574.03976 |                                                              0.000
  586.79620 |                                                              0.000
  599.55263 |****************************************                      0.061
  612.30907 |                                                              0.000
  625.06551 |                                                              0.000
  637.82195 |********************                                          0.030
  650.57839 |                                                              0.000
  663.33483 |                                                              0.000
  676.09127 |                                                              0.000
  688.84771 |****************************************                      0.061
  701.60415 |                                                              0.000
  714.36059 |********************                                          0.030
  727.11702 |                                                              0.000
  739.87346 |                                                              0.000
  752.62990 |                                                              0.000
  765.38634 |                                                              0.000
  778.14278 |                                                              0.000
  790.89922 |                                                              0.000
  803.65566 |************************************************************  0.091
--------------------------------------------------------------------------------



  Time to end of optimisation =       0.0406 seconds


  Peak dynamic memory used =       0.65 MB 


  Timing analysis for GULP :

--------------------------------------------------------------------------------
  Task / Subroutine                                          Time (Seconds)
--------------------------------------------------------------------------------
  Calculation of real space energy and derivatives                0.0026
  Calculation of phonons                                          0.0016
  Calculation and manipulation of Hessian matrix                  0.0016
--------------------------------------------------------------------------------
  Total CPU time                                                  0.0406
--------------------------------------------------------------------------------


  Job Finished at 14:38.50 25th May        2022                               

