------------------------------------------------------------
          Invoking FHI-aims ...

          When using FHI-aims, please cite the following reference:

            Volker Blum, Ralf Gehrke, Felix Hanke, Paula Havu,
            Ville Havu, Xinguo Ren, Karsten Reuter, and Matthias Scheffler,
            'Ab Initio Molecular Simulations with Numeric Atom-Centered Orbitals',
            Computer Physics Communications 180, 2175-2196 (2009)

          In addition, many other developments in FHI-aims are likely important for
          your particular application. A partial list of references is given at the end of
          this file. Thank you for giving credit to the authors of these developments.

          For any questions about FHI-aims, please visit our slack channel at

            https://fhi-aims.slack.com

          and our main development and support site at

            https://aims-git.rz-berlin.mpg.de .

          The latter site, in particular, has a wiki to collect information, as well
          as an issue tracker to log discussions, suggest improvements, and report issues
          or bugs. https://aims-git.rz-berlin.mpg.de is also the main development site
          of the project and all new and updated code versions can be obtained there.
          Please send an email to aims-coordinators@fhi-berlin.mpg.de and we will add
          you to these sites. They are for you and everyone is welcome there.

------------------------------------------------------------



  Date     :  20220517, Time     :  115022.587
  Time zero on CPU 1             :   0.395070000000000E-01  s.
  Internal wall clock time zero  :           422020222.587  s.

  FHI-aims created a unique identifier for this run for later identification
  aims_uuid : FBE5E263-0443-4AB3-AD76-A1008DA5CEF0

  Build configuration of the current instance of FHI-aims
  -------------------------------------------------------
  FHI-aims version      : 210914
  Commit number         : GITDIR-NOTFOUND
  CMake host system     : Linux-3.10.0-693.17.1.el7.x86_64
  CMake version         : 3.21.1
  Fortran compiler      : /shared/ucl/apps/intel/2018.Update3/impi/2018.3.222/intel64/bin/mpiifort (Intel) version 18.0.3.20180410
  Fortran compiler flags: -O3 -ip -fp-model precise
  C compiler            : /shared/ucl/apps/intel/2018.Update3/compilers_and_libraries_2018.3.222/linux/bin/intel64/icc (Intel) version 18.0.3.20180410
  C compiler flags      : -O3 -ip -fp-model precise -std=gnu99
  ELPA2 kernel          : AVX2
  Using MPI
  Using ScaLAPACK
  Using LibXC
  Using i-PI
  Using RLSY
  Linking against: /shared/ucl/apps/intel/2019.Update5/compilers_and_libraries_2019.5.281/linux/mkl/lib/intel64/libmkl_intel_lp64.so
                   /shared/ucl/apps/intel/2019.Update5/compilers_and_libraries_2019.5.281/linux/mkl/lib/intel64/libmkl_sequential.so
                   /shared/ucl/apps/intel/2019.Update5/compilers_and_libraries_2019.5.281/linux/mkl/lib/intel64/libmkl_core.so
                   /shared/ucl/apps/intel/2019.Update5/compilers_and_libraries_2019.5.281/linux/mkl/lib/intel64/libmkl_blacs_intelmpi_lp64.so
                   /shared/ucl/apps/intel/2019.Update5/compilers_and_libraries_2019.5.281/linux/mkl/lib/intel64/libmkl_scalapack_lp64.so

  Using       24 parallel tasks.
  Task        0 on host node-k98i-010 reporting.
  Task        1 on host node-k98i-010 reporting.
  Task        2 on host node-k98i-010 reporting.
  Task        3 on host node-k98i-010 reporting.
  Task        4 on host node-k98i-010 reporting.
  Task        5 on host node-k98i-010 reporting.
  Task        6 on host node-k98i-010 reporting.
  Task        7 on host node-k98i-010 reporting.
  Task        8 on host node-k98i-010 reporting.
  Task        9 on host node-k98i-010 reporting.
  Task       10 on host node-k98i-010 reporting.
  Task       11 on host node-k98i-010 reporting.
  Task       12 on host node-k98i-010 reporting.
  Task       13 on host node-k98i-010 reporting.
  Task       14 on host node-k98i-010 reporting.
  Task       15 on host node-k98i-010 reporting.
  Task       16 on host node-k98i-010 reporting.
  Task       17 on host node-k98i-010 reporting.
  Task       18 on host node-k98i-010 reporting.
  Task       19 on host node-k98i-010 reporting.
  Task       20 on host node-k98i-010 reporting.
  Task       21 on host node-k98i-010 reporting.
  Task       22 on host node-k98i-010 reporting.
  Task       23 on host node-k98i-010 reporting.

  Performing system and environment tests:
  | Environment variable OMP_NUM_THREADS correctly set to 1.
  | Checking for ScaLAPACK...
  | Testing pdtran()...
  | All pdtran() tests passed.

  Obtaining array dimensions for all initial allocations:
  
  -----------------------------------------------------------------------
  Parsing control.in (first pass over file, find array dimensions only).
  The contents of control.in will be repeated verbatim below
  unless switched off by setting 'verbatim_writeout .false.' .
  in the first line of control.in .
  -----------------------------------------------------------------------
  
  #########################################################################################  Physical model
  #########################################################################################
  xc                 pbesol
  spin               none
  relativistic       atomic_zora scalar
  charge             0.0
  #  SCF convergence
  occupation_type    gaussian 0.01
  mixer              pulay
  n_max_pulay        10
  charge_mix_param   0.5
  sc_accuracy_rho    1E-5
  sc_accuracy_eev    1E-3
  sc_accuracy_etot   1E-6
  sc_accuracy_forces 1E-4
  sc_iter_limit      1500
  #  Relaxation
  #relax_geometry   bfgs 1.e-3
  
  ################################################################################
  #
  #  FHI-aims code project
  #  VB, Fritz-Haber Institut, 2009
  #
  #  Suggested "light" defaults for Al atom (to be pasted into control.in file)
  #  Be sure to double-check any results obtained with these settings for post-processing,
  #  e.g., with the "tight" defaults and larger basis sets.
  #
  ################################################################################
    species        Al
  #     global species definitions
      nucleus             13
      mass                26.9815386
  #
      l_hartree           4
  #
      cut_pot             3.5          1.5  1.0
      basis_dep_cutoff    1e-4
  #
      radial_base         41 5.0
      radial_multiplier   1
      angular_grids       specified
        division   0.6594  110
        division   0.8170  194
        division   0.9059  302
  #      division   1.0363  434
  #      division   1.1443  590
  #      division   1.2621  770
  #      division   2.8177  974
  #      outer_grid   974
        outer_grid   302
  ################################################################################
  #
  #  Definition of "minimal" basis
  #
  ################################################################################
  #     valence basis states
      valence      3  s   2.
      valence      3  p   1.
  #     ion occupancy
      ion_occ      3  s   1.
      ion_occ      2  p   6.
  ################################################################################
  #
  #  Suggested additional basis functions. For production calculations,
  #  uncomment them one after another (the most important basis functions are
  #  listed first).
  #
  #  Constructed for dimers: 2.0 A, 2.5 A, 3.0 A, 3.75 A, 4.5 A
  #
  ################################################################################
  #  "First tier" - improvements: -199.47 meV to -10.63 meV
       ionic 3 d auto
       ionic 3 p auto
  #     hydro 4 f 4.7
       ionic 3 s auto
  #  "Second tier" - improvements: -5.35 meV to -1.57 meV
  #     hydro 5 g 7
  #     hydro 3 d 6
  #     hydro 2 s 11.6
  #     hydro 2 p 0.9
  #  "Third tier" - improvements: -0.63 meV to -0.20 meV
  #     hydro 5 f 7.6
  #     hydro 4 p 7.2
  #     hydro 4 s 3.7
  #     hydro 4 d 7.6
  #  "Fourth tier" - improvements: -0.17 meV to -0.08 meV
  #     hydro 4 d 13.6
  #     hydro 5 g 11.2
  #     hydro 4 d 0.9
  #     hydro 1 s 0.4
  #     hydro 4 p 0.1
  #     hydro 5 f 9.8
  #  Further basis functions that fell out of the optimization - noise level...
  #     hydro 4 p 5
  
  ################################################################################
  #
  #  FHI-aims code project
  #  VB, Fritz-Haber Institut, 2009
  #
  #  Suggested "light" defaults for F atom (to be pasted into control.in file)
  #  Be sure to double-check any results obtained with these settings for post-processing,
  #  e.g., with the "tight" defaults and larger basis sets.
  #
  ################################################################################
    species        F
  #     global species definitions
      nucleus             9
      mass                18.9984032
  #
      l_hartree           4
  #
      cut_pot             3.5  1.5  1.0
      basis_dep_cutoff    1e-4
  #
      radial_base         37 5.0
      radial_multiplier   1
      angular_grids specified
        division   0.4014  110
        division   0.5291  194
        division   0.6019  302
  #      division   0.6814  434
  #      division   0.7989  590
  #      division   0.8965  770
  #      division   1.3427  974
  #      outer_grid   974
        outer_grid   302
  ################################################################################
  #
  #  Definition of "minimal" basis
  #
  ################################################################################
  #     valence basis states
      valence      2  s   2.
      valence      2  p   5.
  #     ion occupancy
      ion_occ      2  s   1.
      ion_occ      2  p   4.
  ################################################################################
  #
  #  Suggested additional basis functions. For production calculations,
  #  uncomment them one after another (the most important basis functions are
  #  listed first).
  #
  #  Constructed for dimers: 1.2 A, 1.418 A, 1.75 A, 2.25 A, 3.25 A
  #
  ################################################################################
  #  "First tier" - improvements: -149.44 meV to -45.88 meV
       hydro 2 p 1.7
       hydro 3 d 7.4
       hydro 3 s 6.8
  #  "Second tier" - improvements: -12.96 meV to -1.56 meV
  #     hydro 4 f 11.2
  #     ionic 2 p auto
  #     hydro 1 s 0.75
  #     hydro 4 d 8.8
  #     hydro 5 g 16.8
  #  "Third tier" - improvements: -0.58 meV to -0.05 meV
  #     hydro 3 p 6.2
  #     hydro 3 s 3.2
  #     hydro 4 f 9.6
  #     hydro 3 s 19.6
  #     hydro 4 d 8.6
  #     hydro 5 g 14.4
  # Further basis functions: -0.05 meV and below
  #     hydro 3 p 4.2
  
  -----------------------------------------------------------------------
  Completed first pass over input file control.in .
  -----------------------------------------------------------------------
  
  
  -----------------------------------------------------------------------
  Parsing geometry.in (first pass over file, find array dimensions only).
  The contents of geometry.in will be repeated verbatim below
  unless switched off by setting 'verbatim_writeout .false.' .
  in the first line of geometry.in .
  -----------------------------------------------------------------------
  
  atom -0.369815238 1.030310360 -1.910210536 Al
  atom -0.611415981 1.043418691 1.514809001 Al
  atom -2.956263303 0.472625078 -1.842334209 Al
  atom -3.505180455 0.321814336 -3.529566761 F
  atom -1.545828958 -0.718905304 -1.850692138 F
  atom -2.163466293 2.138956789 -1.905198761 F
  atom -2.088170577 0.703278655 0.414420709 F
  atom 0.862924416 1.325897897 -0.380805775 F
  atom -0.280765981 2.851500204 2.024321171 F
  atom 0.432109208 -0.447044871 2.087229358 F
  atom -4.217935367 0.222769926 -0.646102713 F
  atom 0.875515219 1.271981503 -3.350417644 F
  
  -----------------------------------------------------------------------
  Completed first pass over input file geometry.in .
  -----------------------------------------------------------------------
  

  Basic array size parameters:
  | Number of species                 :        2
  | Number of atoms                   :       12
  | Max. basis fn. angular momentum   :        2
  | Max. atomic/ionic basis occupied n:        3
  | Max. number of basis fn. types    :        3
  | Max. radial fns per species/type  :        5
  | Max. logarithmic grid size        :     1340
  | Max. radial integration grid size :       41
  | Max. angular integration grid size:      302
  | Max. angular grid division number :        8
  | Radial grid for Hartree potential :     1340
  | Number of spin channels           :        1

------------------------------------------------------------
          Reading file control.in.
------------------------------------------------------------
  XC: Using PBEsol gradient-corrected functionals.
  Spin treatment: No spin polarisation.
  Scalar relativistic treatment of kinetic energy: on-site free-atom approximation to ZORA.
  Charge =   0.000000E+00: Neutral system requested explicitly.
  Occupation type: Gaussian broadening, width =   0.100000E-01 eV.
  Using pulay charge density mixing.
  Pulay mixing - number of memorized iterations:   10
  Charge density mixing - mixing parameter:     0.5000
  Convergence accuracy of self-consistent charge density:  0.1000E-04
  Convergence accuracy of sum of eigenvalues:  0.1000E-02
  Convergence accuracy of total energy:  0.1000E-05
  Convergence accuracy of forces:  0.1000E-03
  Maximum number of s.-c. iterations  :  1500
 
  Reading configuration options for species Al                  .
  | Found nuclear charge :  13.0000
  | Found atomic mass :    26.9815386000000      amu
  | Found l_max for Hartree potential  :   4
  | Found cutoff potl. onset [A], width [A], scale factor :    3.50000    1.50000    1.00000
  | Threshold for basis-dependent cutoff potential is   0.100000E-03
  | Found data for basic radial integration grid :    41 points, outermost radius =    5.000 A
  | Found multiplier for basic radial grid :   1
  | Found angular grid specification: user-specified.
  | Specified grid contains     4 separate shells.
  | Check grid settings after all constraints further below.
  | Found free-atom valence shell :  3 s   2.000
  | Found free-atom valence shell :  3 p   1.000
  | Found free-ion valence shell :  3 s   1.000
  | Found free-ion valence shell :  2 p   6.000
  | Found ionic basis function :  3 d , default cutoff radius.
  | Found ionic basis function :  3 p , default cutoff radius.
  | Found ionic basis function :  3 s , default cutoff radius.
  Species Al                  : Missing cutoff potential type.
  Defaulting to exp(1/x)/(1-x)^2 type cutoff potential.
  Species Al: No 'logarithmic' tag. Using default grid for free atom:
  | Default logarithmic grid data [bohr] : 0.1000E-03 0.1000E+03 0.1012E+01
  | Will include ionic basis functions of  2.0-fold positive Al                   ion.
  Species Al: On-site basis accuracy parameter (for Gram-Schmidt orthonormalisation) not specified.
  Using default value basis_acc =  0.1000000E-03.
  Species Al                  : Using default innermost maximum threshold i_radial=  2 for radial functions.
  Species Al                  : Default cutoff onset for free atom density etc. : 0.35000000E+01 AA.
  Species Al                  : Basic radial grid will be enhanced according to radial_multiplier =   1, to contain    41 grid points.
 
  Reading configuration options for species F                   .
  | Found nuclear charge :   9.0000
  | Found atomic mass :    18.9984032000000      amu
  | Found l_max for Hartree potential  :   4
  | Found cutoff potl. onset [A], width [A], scale factor :    3.50000    1.50000    1.00000
  | Threshold for basis-dependent cutoff potential is   0.100000E-03
  | Found data for basic radial integration grid :    37 points, outermost radius =    5.000 A
  | Found multiplier for basic radial grid :   1
  | Found angular grid specification: user-specified.
  | Specified grid contains     4 separate shells.
  | Check grid settings after all constraints further below.
  | Found free-atom valence shell :  2 s   2.000
  | Found free-atom valence shell :  2 p   5.000
  | Found free-ion valence shell :  2 s   1.000
  | Found free-ion valence shell :  2 p   4.000
  | Found hydrogenic basis function :  2 p   1.700
  | Found hydrogenic basis function :  3 d   7.400
  | Found hydrogenic basis function :  3 s   6.800
  Species F                   : Missing cutoff potential type.
  Defaulting to exp(1/x)/(1-x)^2 type cutoff potential.
  Species F : No 'logarithmic' tag. Using default grid for free atom:
  | Default logarithmic grid data [bohr] : 0.1000E-03 0.1000E+03 0.1012E+01
  Species F : On-site basis accuracy parameter (for Gram-Schmidt orthonormalisation) not specified.
  Using default value basis_acc =  0.1000000E-03.
  Species F                   : Using default innermost maximum threshold i_radial=  2 for radial functions.
  Species F                   : Default cutoff onset for free atom density etc. : 0.35000000E+01 AA.
  Species F                   : Basic radial grid will be enhanced according to radial_multiplier =   1, to contain    37 grid points.
 
  Finished reading input file 'control.in'.
 
------------------------------------------------------------


------------------------------------------------------------
          Reading geometry description geometry.in.
------------------------------------------------------------
  | The smallest distance between any two atoms is         1.75647766 AA.
  | The first atom of this pair is atom number                      3 .
  | The second atom of this pair is atom number                    11 .
  Input structure read successfully.
  The structure contains       12 atoms,  and a total of        120.000 electrons.

  Input geometry:
  | No unit cell requested.
  | Atomic structure:
  |       Atom                x [A]            y [A]            z [A]
  |    1: Species Al           -0.36981524        1.03031036       -1.91021054
  |    2: Species Al           -0.61141598        1.04341869        1.51480900
  |    3: Species Al           -2.95626330        0.47262508       -1.84233421
  |    4: Species F            -3.50518046        0.32181434       -3.52956676
  |    5: Species F            -1.54582896       -0.71890530       -1.85069214
  |    6: Species F            -2.16346629        2.13895679       -1.90519876
  |    7: Species F            -2.08817058        0.70327865        0.41442071
  |    8: Species F             0.86292442        1.32589790       -0.38080578
  |    9: Species F            -0.28076598        2.85150020        2.02432117
  |   10: Species F             0.43210921       -0.44704487        2.08722936
  |   11: Species F            -4.21793537        0.22276993       -0.64610271
  |   12: Species F             0.87551522        1.27198150       -3.35041764

 
  Finished reading input file 'control.in'.
 

------------------------------------------------------------
          Reading geometry description geometry.in.
------------------------------------------------------------
 
  Consistency checks for stacksize environment parameter are next.
 
  | Maximum stacksize for task 0: unlimited
  | Maximum stacksize for task 1: unlimited
  | Maximum stacksize for task 2: unlimited
  | Maximum stacksize for task 3: unlimited
  | Maximum stacksize for task 4: unlimited
  | Maximum stacksize for task 5: unlimited
  | Maximum stacksize for task 6: unlimited
  | Maximum stacksize for task 7: unlimited
  | Maximum stacksize for task 8: unlimited
  | Maximum stacksize for task 9: unlimited
  | Maximum stacksize for task 10: unlimited
  | Maximum stacksize for task 11: unlimited
  | Maximum stacksize for task 12: unlimited
  | Maximum stacksize for task 13: unlimited
  | Maximum stacksize for task 14: unlimited
  | Maximum stacksize for task 15: unlimited
  | Maximum stacksize for task 16: unlimited
  | Maximum stacksize for task 17: unlimited
  | Maximum stacksize for task 18: unlimited
  | Maximum stacksize for task 19: unlimited
  | Maximum stacksize for task 20: unlimited
  | Maximum stacksize for task 21: unlimited
  | Maximum stacksize for task 22: unlimited
  | Maximum stacksize for task 23: unlimited
  | Current stacksize for task 0: unlimited
  | Current stacksize for task 1: unlimited
  | Current stacksize for task 2: unlimited
  | Current stacksize for task 3: unlimited
  | Current stacksize for task 4: unlimited
  | Current stacksize for task 5: unlimited
  | Current stacksize for task 6: unlimited
  | Current stacksize for task 7: unlimited
  | Current stacksize for task 8: unlimited
  | Current stacksize for task 9: unlimited
  | Current stacksize for task 10: unlimited
  | Current stacksize for task 11: unlimited
  | Current stacksize for task 12: unlimited
  | Current stacksize for task 13: unlimited
  | Current stacksize for task 14: unlimited
  | Current stacksize for task 15: unlimited
  | Current stacksize for task 16: unlimited
  | Current stacksize for task 17: unlimited
  | Current stacksize for task 18: unlimited
  | Current stacksize for task 19: unlimited
  | Current stacksize for task 20: unlimited
  | Current stacksize for task 21: unlimited
  | Current stacksize for task 22: unlimited
  | Current stacksize for task 23: unlimited
 
  Consistency checks for the contents of control.in are next.
 
  MPI_IN_PLACE appears to work with this MPI implementation.
  | Keeping use_mpi_in_place .true. (see manual).
  Target number of points in a grid batch is not set. Defaulting to  100
  Method for grid partitioning is not set. Defaulting to parallel hash+maxmin partitioning.
  Batch size limit is not set. Defaulting to    200
  By default, will store active basis functions for each batch.
  If in need of memory, prune_basis_once .false. can be used to disable this option.
  communication_type for Hartree potential was not specified.
  Defaulting to calc_hartree .
  Pulay mixer: Number of initial linear mixing iterations not set.
  Defaulting to    0 iterations.
  Work space size for distributed Hartree potential not set.
  Defaulting to   0.200000E+03 MB.
  Algorithm-dependent basis array size parameters:
  | n_max_pulay                         :       10
  Presetting      1001 iterations before the initial mixing cycle
  is restarted anyway using the sc_init_iter criterion / keyword.
  Presetting a factor      1.000 between actual scf density residual
  and density convergence criterion sc_accuracy_rho below which sc_init_iter
  takes no effect.
  Geometry relaxation not requested: no relaxation will be performed.
  Forces evaluation will include force correction term due to incomplete self-consistency (default).
  Handling of forces: Unphysical translation and rotation will be removed from forces.
  No accuracy limit for integral partition fn. given. Defaulting to  0.1000E-14.
  No threshold value for u(r) in integrations given. Defaulting to  0.1000E-05.
  No accuracy for occupation numbers given. Defaulting to  0.1000E-12.
  No threshold value for occupation numbers given. Defaulting to  0.0000E+00.
  No accuracy for fermi level given. Defaulting to  0.1000E-19.
  Maximum # of iterations to find E_F not set. Defaulting to  200.
  Preferred method for the eigenvalue solver ('KS_method') not specified in 'control.in'.
  Calling BLACS routine to test compilation state
  Since ScaLAPACK support is enabled, defaulting to ELPA (via ELSI).
  Will not use alltoall communication since running on < 1024 CPUs.
  Threshold for basis singularities not set.
  Default threshold for basis singularities:  0.1000E-04
  partition_type (choice of integration weights) for integrals was not specified.
  | Using a version of the partition function of Stratmann and coworkers ('stratmann_sparse').
  | At each grid point, the set of atoms used to build the partition table is smoothly restricted to
  | only those atoms whose free-atom density would be non-zero at that grid point.
  Partitioning for Hartree potential was not defined. Using partition_type for integrals.
  | Adjusted default value of keyword multip_moments_threshold to:       0.10000000E-11
  | This value may affect high angular momentum components of the Hartree potential in periodic systems.
  No q(lm)/r^(l+1) cutoff set for long-range Hartree potential.
  | Using default value of  0.100000E-09 .
  | Verify using the multipole_threshold keyword.
  Defaulting to new monopole extrapolation.
  Density update method: automatic selection selected.
  Charge integration errors on the 3D integration grid will be compensated
  by explicit normalization and distribution of residual charges.
  Use the "compensate_multipole_errors" flag to change this behaviour.
  Set 'collect_eigenvectors' to be '.true.' for use_density_matrix .false.
 
  Consistency checks for the contents of geometry.in are next.
 
  Number of empty states per atom not set in control.in - providing a guess from actual geometry.
  | Total number of empty states used during s.c.f. cycle:       36
  If you use a very high smearing, use empty_states (per atom!) in control.in to increase this value.

  Structure-dependent array size parameters: 
  | Maximum number of distinct radial functions  :       14
  | Maximum number of basis functions            :      180
  | Number of Kohn-Sham states (occupied + empty):       96
------------------------------------------------------------

------------------------------------------------------------
          Preparing all fixed parts of the calculation.
------------------------------------------------------------
  Determining machine precision:
    2.225073858507201E-308
  Setting up grids for atomic and cluster calculations.

  Creating wave function, potential, and density for free atoms.

  Species: Al

  List of occupied orbitals and eigenvalues:
    n    l              occ      energy [Ha]    energy [eV]
    1    0           2.0000       -55.621123     -1513.5278
    2    0           2.0000        -3.957030      -107.6763
    3    0           2.0000        -0.272233        -7.4078
    2    1           6.0000        -2.540949       -69.1427
    3    1           1.0000        -0.083300        -2.2667


  Species: F

  List of occupied orbitals and eigenvalues:
    n    l              occ      energy [Ha]    energy [eV]
    1    0           2.0000       -24.399611      -663.9472
    2    0           2.0000        -1.098702       -29.8972
    2    1           5.0000        -0.408210       -11.1080


  Adding cutoff potential to free-atom effective potential.
  Creating fixed part of basis set: Ionic, confined, hydrogenic.
 
  Al                   ion:

  List of free ionic orbitals and eigenvalues:
    n    l      energy [Ha]    energy [eV]
    1    0       -56.418846     -1535.2349
    2    0        -4.732717      -128.7838
    3    0        -0.872690       -23.7471
    2    1        -3.317230       -90.2664


  List of ionic basis orbitals and eigenvalues:
    n    l      energy [Ha]    energy [eV]    outer radius [A]
    3    2        -0.346815        -9.4373       4.594041
    3    1        -0.631870       -17.1940       4.538221
    3    0        -0.872657       -23.7462       4.538221

 
  F                    hydrogenic:
 
  List of hydrogenic basis orbitals: 
    n    l      effective z      eigenvalue [eV]  inner max. [A]     outer max. [A]     outer radius [A]   
    2    1         1.700000        -9.7616           1.243167           1.243167           4.598524
    3    2         7.400000       -82.7828           0.642437           0.642437           3.305741
    3    0         6.800000       -69.9026           0.057798           1.022307           3.781556
 
  Creating atomic-like basis functions for current effective potential.

  Species Al                  :

  List of atomic basis orbitals and eigenvalues:
    n    l      energy [Ha]    energy [eV]    outer radius [A]
    1    0       -55.621123     -1513.5278       0.850197
    2    0        -3.957030      -107.6763       3.144911
    3    0        -0.272233        -7.4078       4.594041
    2    1        -2.540949       -69.1427       3.731966
    3    1        -0.083300        -2.2667       4.594041


  Species F                   :

  List of atomic basis orbitals and eigenvalues:
    n    l      energy [Ha]    energy [eV]    outer radius [A]
    1    0       -24.399611      -663.9472       1.258458
    2    0        -1.098702       -29.8972       4.325857
    2    1        -0.408210       -11.1080       4.487453

  Assembling full basis from fixed parts.
  | Species Al :   atomic orbital   1 s accepted.
  | Species Al :   atomic orbital   2 s accepted.
  | Species Al :    ionic orbital   3 s accepted.
  | Species Al :   atomic orbital   3 s accepted.
  | Species Al :   atomic orbital   2 p accepted.
  | Species Al :    ionic orbital   3 p accepted.
  | Species Al :   atomic orbital   3 p accepted.
  | Species Al :    ionic orbital   3 d accepted.
  | Species F :   atomic orbital   1 s accepted.
  | Species F :    hydro orbital   3 s accepted.
  | Species F :   atomic orbital   2 s accepted.
  | Species F :   atomic orbital   2 p accepted.
  | Species F :    hydro orbital   2 p accepted.
  | Species F :    hydro orbital   3 d accepted.
 
  Basis size parameters after reduction:
  | Total number of radial functions:       14
  | Total number of basis functions :      180
 
  Per-task memory consumption for arrays in subroutine allocate_ext:
  |           4.807768MB.
  Testing on-site integration grid accuracy.
  |  Species  Function  <phi|h_atom|phi> (log., in eV)  <phi|h_atom|phi> (rad., in eV)
           1        1              -1513.5277717935              -1513.5271881332
           1        2               -107.6762691836               -107.6762662489
           1        3                 -6.9467474784                 -6.9471269649
           1        4                  5.5771951849                  5.4862107220 ***
           1        5                -69.1427313144                -69.1427312731
           1        6                 -1.5197375330                 -1.5230432022
           1        7                  6.8210948310                  6.5529872240 ***
           1        8                  4.3216540965                  4.2851170187 ***
           2        9               -663.9471986398               -663.9470363334
           2       10                 16.8514011578                 16.8512525338
           2       11                -28.4490593856                -28.4490661472
           2       12                -11.1080115307                -11.1080620173
           2       13                  7.1940182175                  7.1685154137
           2       14                 44.8544281765                 44.8543763625
 * Note: Onsite integrals marked "***" above are less accurate than
 * onsite_accuracy_threshold =    0.03000 eV. Usually, this is harmless.
 * When in doubt, tighten the "radial" and/or "radial_multiplier" flags to check.

  Preparing densities etc. for the partition functions (integrals / Hartree potential).

  Preparations completed.
  max(cpu_time)          :      0.184 s.
  Wall clock time (cpu1) :      0.184 s.
------------------------------------------------------------

------------------------------------------------------------
          Begin self-consistency loop: Initialization.

          Date     :  20220517, Time     :  115022.904
------------------------------------------------------------

  Initializing index lists of integration centers etc. from given atomic structure:
  | Number of centers in hartree potential         :        12
  | Number of centers in hartree multipole         :        12
  | Number of centers in electron density summation:        12
  | Number of centers in basis integrals           :        12
  | Number of centers in integrals                 :        12
  | Number of centers in hamiltonian               :        12
  * Using 24 tasks for Scalapack Eigenvalue solver.
  Detailed listing of tasks and assigned k-points:
  (for non-periodic systems, the "k-point" denotes an internal label only)
   Task     0 k-point     1 on node-k98i-010
   Task     1 k-point     1 on node-k98i-010
   Task     2 k-point     1 on node-k98i-010
   Task     3 k-point     1 on node-k98i-010
   Task     4 k-point     1 on node-k98i-010
   Task     5 k-point     1 on node-k98i-010
   Task     6 k-point     1 on node-k98i-010
   Task     7 k-point     1 on node-k98i-010
   Task     8 k-point     1 on node-k98i-010
   Task     9 k-point     1 on node-k98i-010
   Task    10 k-point     1 on node-k98i-010
   Task    11 k-point     1 on node-k98i-010
   Task    12 k-point     1 on node-k98i-010
   Task    13 k-point     1 on node-k98i-010
   Task    14 k-point     1 on node-k98i-010
   Task    15 k-point     1 on node-k98i-010
   Task    16 k-point     1 on node-k98i-010
   Task    17 k-point     1 on node-k98i-010
   Task    18 k-point     1 on node-k98i-010
   Task    19 k-point     1 on node-k98i-010
   Task    20 k-point     1 on node-k98i-010
   Task    21 k-point     1 on node-k98i-010
   Task    22 k-point     1 on node-k98i-010
   Task    23 k-point     1 on node-k98i-010
  Tasks:    24 split into      6 X      4 BLACS grid
  Calculating block size based on n_basis =          180  max_nprow =            6  max_npcol =            4
  ScaLAPACK block size set to:           16
  Allocating        0.012 MB for ovlp
  Allocating        0.012 MB for ham
  Allocating        0.012 MB for eigenvec
  Required Scalapack workspace - INTEGER:            1  REAL:             1
  Partitioning the integration grid into batches with parallel hashing+maxmin method.
  | Number of batches:     1038
  | Maximal batch size:     191
  | Minimal batch size:      22
  | Average batch size:      88.555
  | Standard deviation of batch sizes:      31.152

  Integration load balanced across    24 MPI tasks.
  Work distribution over tasks is as follows:
  Task     0 has       3816 integration points.
  Task     1 has       3882 integration points.
  Task     2 has       3815 integration points.
  Task     3 has       3886 integration points.
  Task     4 has       3764 integration points.
  Task     5 has       3868 integration points.
  Task     6 has       3881 integration points.
  Task     7 has       3756 integration points.
  Task     8 has       3854 integration points.
  Task     9 has       3850 integration points.
  Task    10 has       3917 integration points.
  Task    11 has       3859 integration points.
  Task    12 has       3800 integration points.
  Task    13 has       3782 integration points.
  Task    14 has       3857 integration points.
  Task    15 has       3803 integration points.
  Task    16 has       3808 integration points.
  Task    17 has       3803 integration points.
  Task    18 has       3863 integration points.
  Task    19 has       3750 integration points.
  Task    20 has       3798 integration points.
  Task    21 has       3797 integration points.
  Task    22 has       3857 integration points.
  Task    23 has       3854 integration points.
  Initializing partition tables, free-atom densities, potentials, etc. across the integration grid (initialize_grid_storage).
  | initialize_grid_storage: Actual outermost partition radius vs. multipole_radius_free
  | (-- VB: in principle, multipole_radius_free should be larger, hence this output)
  | Species        1: Confinement radius =              4.999999999999999 AA, multipole_radius_free =              5.004487022111096 AA.
  | Species        1: outer_partition_radius set to              5.004487022111096 AA .
  | Species        2: Confinement radius =              4.999999999999999 AA, multipole_radius_free =              5.009370088163274 AA.
  | Species        2: outer_partition_radius set to              5.009370088163274 AA .
  | The sparse table of interatomic distances needs          1.64 kbyte instead of         1.15 kbyte of memory.
  | Using the partition_type stratmann_smoother will reduce your memory usage.
  | Net number of integration points:    91920
  | of which are non-zero points    :    86000
  Renormalizing the initial density to the exact electron count on the 3D integration grid.
  | Initial density: Formal number of electrons (from input files) :     120.0000000000
  | Integrated number of electrons on 3D grid     :     119.9999522503
  | Charge integration error                      :      -0.0000477497
  | Normalization factor for density and gradient :       1.0000003979
  Renormalizing the free-atom superposition density to the exact electron count on the 3D integration grid.
  | Formal number of electrons (from input files) :     120.0000000000
  | Integrated number of electrons on 3D grid     :     119.9999522503
  | Charge integration error                      :      -0.0000477497
  | Normalization factor for density and gradient :       1.0000003979
  Obtaining max. number of non-zero basis functions in each batch (get_n_compute_maxes).
  | Maximal number of non-zero basis functions:      171 in task     0
  | Maximal number of non-zero basis functions:      161 in task     1
  | Maximal number of non-zero basis functions:      164 in task     2
  | Maximal number of non-zero basis functions:      166 in task     3
  | Maximal number of non-zero basis functions:      170 in task     4
  | Maximal number of non-zero basis functions:      166 in task     5
  | Maximal number of non-zero basis functions:      166 in task     6
  | Maximal number of non-zero basis functions:      158 in task     7
  | Maximal number of non-zero basis functions:      159 in task     8
  | Maximal number of non-zero basis functions:      158 in task     9
  | Maximal number of non-zero basis functions:      160 in task    10
  | Maximal number of non-zero basis functions:      166 in task    11
  | Maximal number of non-zero basis functions:      158 in task    12
  | Maximal number of non-zero basis functions:      165 in task    13
  | Maximal number of non-zero basis functions:      159 in task    14
  | Maximal number of non-zero basis functions:      165 in task    15
  | Maximal number of non-zero basis functions:      159 in task    16
  | Maximal number of non-zero basis functions:      169 in task    17
  | Maximal number of non-zero basis functions:      163 in task    18
  | Maximal number of non-zero basis functions:      170 in task    19
  | Maximal number of non-zero basis functions:      163 in task    20
  | Maximal number of non-zero basis functions:      161 in task    21
  | Maximal number of non-zero basis functions:      159 in task    22
  | Maximal number of non-zero basis functions:      160 in task    23
  Selecting the method for density update.
  Loop over occupied states selected for charge density update.
  Allocating        0.132 MB for KS_eigenvector
  Integrating Hamiltonian matrix: batch-based integration.
  Time summed over all CPUs for integration: real work        0.690 s, elapsed        0.730 s
  Integrating overlap matrix.
  Time summed over all CPUs for integration: real work        0.267 s, elapsed        0.285 s
  Deallocating overlap matrix.

  Updating Kohn-Sham eigenvalues and eigenvectors using ELSI and the ELPA eigensolver.
  Overlap matrix is not singular
  | Lowest and highest eigenvalues :  0.3820E-02,  0.4992E+01
  Finished singularity check of overlap matrix
  | Time :     0.004 s
  Starting ELPA eigensolver
  Finished Cholesky decomposition
  | Time :     0.002 s
  Finished transformation to standard eigenproblem
  | Time :     0.001 s
  Finished solving standard eigenproblem
  | Time :     0.003 s
  Finished back-transformation of eigenvectors
  | Time :     0.000 s

  Obtaining occupation numbers and chemical potential using ELSI.
  | Chemical potential (Fermi level):    -8.03167019 eV
  Writing Kohn-Sham eigenvalues.

  State    Occupation    Eigenvalue [Ha]    Eigenvalue [eV]
      1       2.00000         -55.486292        -1509.85884
      2       2.00000         -55.482665        -1509.76013
      3       2.00000         -55.480806        -1509.70956
      4       2.00000         -24.353130         -662.68240
      5       2.00000         -24.353130         -662.68240
      6       2.00000         -24.348263         -662.54994
      7       2.00000         -24.344968         -662.46029
      8       2.00000         -24.341171         -662.35696
      9       2.00000         -24.331171         -662.08486
     10       2.00000         -24.331171         -662.08486
     11       2.00000         -24.330703         -662.07213
     12       2.00000         -24.330127         -662.05645
     13       2.00000          -3.952411         -107.55057
     14       2.00000          -3.946559         -107.39133
     15       2.00000          -3.944439         -107.33366
     16       2.00000          -2.545578          -69.26870
     17       2.00000          -2.544246          -69.23245
     18       2.00000          -2.543411          -69.20972
     19       2.00000          -2.539246          -69.09639
     20       2.00000          -2.538007          -69.06269
     21       2.00000          -2.537311          -69.04373
     22       2.00000          -2.536710          -69.02739
     23       2.00000          -2.536620          -69.02495
     24       2.00000          -2.535038          -68.98189
     25       2.00000          -1.175938          -31.99891
     26       2.00000          -1.167709          -31.77497
     27       2.00000          -1.161821          -31.61475
     28       2.00000          -1.154777          -31.42308
     29       2.00000          -1.149004          -31.26600
     30       2.00000          -1.138077          -30.96864
     31       2.00000          -1.135472          -30.89777
     32       2.00000          -1.134738          -30.87778
     33       2.00000          -1.132966          -30.82958
     34       2.00000          -0.548598          -14.92812
     35       2.00000          -0.522965          -14.23060
     36       2.00000          -0.519075          -14.12476
     37       2.00000          -0.504787          -13.73596
     38       2.00000          -0.499213          -13.58429
     39       2.00000          -0.497325          -13.53289
     40       2.00000          -0.485177          -13.20233
     41       2.00000          -0.482831          -13.13850
     42       2.00000          -0.481605          -13.10514
     43       2.00000          -0.479620          -13.05113
     44       2.00000          -0.478796          -13.02870
     45       2.00000          -0.472333          -12.85283
     46       2.00000          -0.466322          -12.68928
     47       2.00000          -0.461267          -12.55171
     48       2.00000          -0.460623          -12.53420
     49       2.00000          -0.452984          -12.32634
     50       2.00000          -0.452396          -12.31032
     51       2.00000          -0.452024          -12.30020
     52       2.00000          -0.447594          -12.17965
     53       2.00000          -0.446637          -12.15362
     54       2.00000          -0.443490          -12.06799
     55       2.00000          -0.441664          -12.01830
     56       2.00000          -0.440939          -11.99855
     57       2.00000          -0.440212          -11.97878
     58       2.00000          -0.437316          -11.89997
     59       2.00000          -0.434948          -11.83553
     60       2.00000          -0.434792          -11.83129
     61       0.00000          -0.176287           -4.79700
     62       0.00000          -0.138470           -3.76796
     63       0.00000          -0.071248           -1.93876
     64       0.00000          -0.048249           -1.31291
     65       0.00000          -0.041471           -1.12847
     66       0.00000          -0.013477           -0.36674
     67       0.00000          -0.004007           -0.10905
     68       0.00000           0.019686            0.53569
     69       0.00000           0.026590            0.72354
     70       0.00000           0.029786            0.81051
     71       0.00000           0.073862            2.00987
     72       0.00000           0.108993            2.96585
     73       0.00000           0.140490            3.82292
     74       0.00000           0.145096            3.94825
     75       0.00000           0.150780            4.10294
     76       0.00000           0.170377            4.63620
     77       0.00000           0.187345            5.09792
     78       0.00000           0.187904            5.11314
     79       0.00000           0.192992            5.25157
     80       0.00000           0.194819            5.30130
     81       0.00000           0.199753            5.43556
     82       0.00000           0.214106            5.82612
     83       0.00000           0.216179            5.88252
     84       0.00000           0.232143            6.31693
     85       0.00000           0.238251            6.48314
     86       0.00000           0.251568            6.84553
     87       0.00000           0.255017            6.93935
     88       0.00000           0.261388            7.11274
     89       0.00000           0.279313            7.60048
     90       0.00000           0.285460            7.76775
     91       0.00000           0.299799            8.15794
     92       0.00000           0.317705            8.64520
     93       0.00000           0.322179            8.76693
     94       0.00000           0.325295            8.85172
     95       0.00000           0.351869            9.57484
     96       0.00000           0.359282            9.77656

  Highest occupied state (VBM) at    -11.83128720 eV
  | Occupation number:      2.00000000

  Lowest unoccupied state (CBM) at    -4.79700494 eV
  | Occupation number:      0.00000000

  Overall HOMO-LUMO gap:      7.03428226 eV.
  Calculating total energy contributions from superposition of free atom densities.

  Total energy components:
  | Sum of eigenvalues            :        -886.49842403 Ha      -24122.84947502 eV
  | XC energy correction          :        -144.19102678 Ha       -3923.63747106 eV
  | XC potential correction       :         187.73668636 Ha        5108.57515727 eV
  | Free-atom electrostatic energy:        -782.32842943 Ha      -21288.23969861 eV
  | Hartree energy correction     :           0.00000000 Ha           0.00000000 eV
  | Entropy correction            :           0.00000000 Ha           0.00000000 eV
  | ---------------------------
  | Total energy                  :       -1625.28119389 Ha      -44226.15148743 eV
  | Total energy, T -> 0          :       -1625.28119389 Ha      -44226.15148743 eV  <-- do not rely on this value for anything but (periodic) metals
  | Electronic free energy        :       -1625.28119389 Ha      -44226.15148743 eV

  Derived energy quantities:
  | Kinetic energy                :        1627.31915403 Ha       44281.60720455 eV
  | Electrostatic energy          :       -3108.40932114 Ha      -84584.12122091 eV
  | Energy correction for multipole
  | error in Hartree potential    :           0.00000000 Ha           0.00000000 eV
  | Sum of eigenvalues per atom                           :       -2010.23745625 eV
  | Total energy (T->0) per atom                          :       -3685.51262395 eV  <-- do not rely on this value for anything but (periodic) metals
  | Electronic free energy per atom                       :       -3685.51262395 eV
  Initialize hartree_potential_storage
  Max. number of atoms included in rho_multipole:           12

  End scf initialization - timings             :  max(cpu_time)    wall_clock(cpu1)
  | Time for scf. initialization                :        0.112 s           0.113 s
  | Boundary condition initialization           :        0.000 s           0.001 s
  | Integration                                 :        0.044 s           0.044 s
  | Solution of K.-S. eqns.                     :        0.011 s           0.011 s
  | Grid partitioning                           :        0.035 s           0.035 s
  | Preloading free-atom quantities on grid     :        0.015 s           0.015 s
  | Free-atom superposition energy              :        0.005 s           0.004 s
  | Total energy evaluation                     :        0.000 s           0.001 s

  Partial memory accounting:
  | Current value for overall tracked memory usage:
  |   Minimum:        0.273 MB (on task 23)
  |   Maximum:        0.292 MB (on task  0)
  |   Average:        0.287 MB
  | Peak value for overall tracked memory usage:
  |   Minimum:        1.292 MB (on task  7 after allocating wave)
  |   Maximum:        1.391 MB (on task  0 after allocating wave)
  |   Average:        1.332 MB
  | Largest tracked array allocation so far:
  |   Minimum:        0.230 MB (H_times_psi on task  7)
  |   Maximum:        0.476 MB (all_coords on task  9)
  |   Average:        0.261 MB
  Note:  These values currently only include a subset of arrays which are explicitly tracked.
  The "true" memory usage will be greater.
------------------------------------------------------------
  Evaluating new KS density.
  Integration grid: deviation in total charge (<rho> - N_e) =  -2.842171E-14

  Time for density update prior                :  max(cpu_time)    wall_clock(cpu1)
  | self-consistency iterative process          :        0.028 s           0.028 s

------------------------------------------------------------
          Begin self-consistency iteration #    1

  Date     :  20220517, Time     :  115023.045
------------------------------------------------------------
  Pulay mixing of updated and previous charge densities.
  Renormalizing the density to the exact electron count on the 3D integration grid.
  | Formal number of electrons (from input files) :     120.0000000000
  | Integrated number of electrons on 3D grid     :     120.0000000000
  | Charge integration error                      :      -0.0000000000
  | Normalization factor for density and gradient :       1.0000000000

  Evaluating partitioned Hartree potential by multipole expansion.
  | Original multipole sum: apparent total charge =  -0.332069E-13
  | Sum of charges compensated after spline to logarithmic grids =   0.150115E-03
  | Analytical far-field extrapolation by fixed multipoles:
  | Hartree multipole sum: apparent total charge =  -0.336497E-13
  Summing up the Hartree potential.
  Time summed over all CPUs for potential: real work        0.382 s, elapsed        0.388 s
  | RMS charge density error from multipole expansion :   0.104464E-01

  Integrating Hamiltonian matrix: batch-based integration.
  Time summed over all CPUs for integration: real work        0.649 s, elapsed        0.680 s

  Updating Kohn-Sham eigenvalues and eigenvectors using ELSI and the ELPA eigensolver.
  Starting ELPA eigensolver
  Finished transformation to standard eigenproblem
  | Time :     0.001 s
  Finished solving standard eigenproblem
  | Time :     0.003 s
  Finished back-transformation of eigenvectors
  | Time :     0.000 s

  Obtaining occupation numbers and chemical potential using ELSI.
  | Chemical potential (Fermi level):    -7.91313926 eV
  Writing Kohn-Sham eigenvalues.

  State    Occupation    Eigenvalue [Ha]    Eigenvalue [eV]
      1       2.00000         -55.725901        -1516.37891
      2       2.00000         -55.674145        -1514.97058
      3       2.00000         -55.614709        -1513.35323
      4       2.00000         -24.235898         -659.49234
      5       2.00000         -24.235895         -659.49225
      6       2.00000         -24.173729         -657.80063
      7       2.00000         -24.152347         -657.21879
      8       2.00000         -24.067131         -654.89996
      9       2.00000         -24.062674         -654.77868
     10       2.00000         -24.062670         -654.77858
     11       2.00000         -24.059482         -654.69182
     12       2.00000         -24.058530         -654.66592
     13       2.00000          -4.155994         -113.09035
     14       2.00000          -4.107150         -111.76124
     15       2.00000          -4.058839         -110.44662
     16       2.00000          -2.749224          -74.81020
     17       2.00000          -2.748946          -74.80264
     18       2.00000          -2.748136          -74.78057
     19       2.00000          -2.701757          -73.51856
     20       2.00000          -2.699450          -73.45578
     21       2.00000          -2.698512          -73.43025
     22       2.00000          -2.652923          -72.18971
     23       2.00000          -2.651281          -72.14501
     24       2.00000          -2.649763          -72.10371
     25       2.00000          -1.153936          -31.40020
     26       2.00000          -1.144249          -31.13659
     27       2.00000          -1.097190          -29.85606
     28       2.00000          -1.070484          -29.12935
     29       2.00000          -1.014516          -27.60639
     30       2.00000          -1.008553          -27.44411
     31       2.00000          -1.008446          -27.44122
     32       2.00000          -1.005771          -27.36842
     33       2.00000          -1.002955          -27.29179
     34       2.00000          -0.544998          -14.83016
     35       2.00000          -0.512889          -13.95641
     36       2.00000          -0.488097          -13.28179
     37       2.00000          -0.484198          -13.17569
     38       2.00000          -0.463264          -12.60607
     39       2.00000          -0.461962          -12.57062
     40       2.00000          -0.445784          -12.13040
     41       2.00000          -0.440229          -11.97923
     42       2.00000          -0.416716          -11.33943
     43       2.00000          -0.401180          -10.91665
     44       2.00000          -0.398323          -10.83891
     45       2.00000          -0.387058          -10.53239
     46       2.00000          -0.381336          -10.37668
     47       2.00000          -0.380680          -10.35883
     48       2.00000          -0.372754          -10.14316
     49       2.00000          -0.356641           -9.70471
     50       2.00000          -0.355261           -9.66713
     51       2.00000          -0.326654           -8.88871
     52       2.00000          -0.325187           -8.84880
     53       2.00000          -0.322923           -8.78720
     54       2.00000          -0.322086           -8.76439
     55       2.00000          -0.321327           -8.74374
     56       2.00000          -0.316409           -8.60993
     57       2.00000          -0.313861           -8.54060
     58       2.00000          -0.312966           -8.51624
     59       2.00000          -0.310345           -8.44493
     60       2.00000          -0.303842           -8.26797
     61       0.00000          -0.211362           -5.75144
     62       0.00000          -0.156009           -4.24521
     63       0.00000          -0.098961           -2.69287
     64       0.00000          -0.089870           -2.44548
     65       0.00000          -0.072237           -1.96566
     66       0.00000          -0.045968           -1.25087
     67       0.00000          -0.027325           -0.74356
     68       0.00000           0.002033            0.05533
     69       0.00000           0.009567            0.26034
     70       0.00000           0.034665            0.94329
     71       0.00000           0.061349            1.66940
     72       0.00000           0.094980            2.58455
     73       0.00000           0.110954            3.01921
     74       0.00000           0.121608            3.30911
     75       0.00000           0.140843            3.83254
     76       0.00000           0.160641            4.37126
     77       0.00000           0.166114            4.52018
     78       0.00000           0.168955            4.59750
     79       0.00000           0.193759            5.27245
     80       0.00000           0.194314            5.28755
     81       0.00000           0.194790            5.30051
     82       0.00000           0.201511            5.48338
     83       0.00000           0.210431            5.72613
     84       0.00000           0.214513            5.83720
     85       0.00000           0.220571            6.00203
     86       0.00000           0.223706            6.08736
     87       0.00000           0.233991            6.36723
     88       0.00000           0.245182            6.67174
     89       0.00000           0.270368            7.35710
     90       0.00000           0.272089            7.40392
     91       0.00000           0.292411            7.95690
     92       0.00000           0.316430            8.61051
     93       0.00000           0.318074            8.65523
     94       0.00000           0.322377            8.77234
     95       0.00000           0.356253            9.69413
     96       0.00000           0.366531            9.97381

  Highest occupied state (VBM) at     -8.26797288 eV
  | Occupation number:      2.00000000

  Lowest unoccupied state (CBM) at    -5.75143945 eV
  | Occupation number:      0.00000000

  Overall HOMO-LUMO gap:      2.51653343 eV.

  Total energy components:
  | Sum of eigenvalues            :        -881.43631539 Ha      -23985.10249026 eV
  | XC energy correction          :        -145.55502373 Ha       -3960.75371663 eV
  | XC potential correction       :         189.53029763 Ha        5157.38180310 eV
  | Free-atom electrostatic energy:        -782.32842943 Ha      -21288.23969861 eV
  | Hartree energy correction     :          -5.25746817 Ha        -143.06298785 eV
  | Entropy correction            :           0.00000000 Ha           0.00000000 eV
  | ---------------------------
  | Total energy                  :       -1625.04693909 Ha      -44219.77709025 eV
  | Total energy, T -> 0          :       -1625.04693909 Ha      -44219.77709025 eV  <-- do not rely on this value for anything but (periodic) metals
  | Electronic free energy        :       -1625.04693909 Ha      -44219.77709025 eV

  Derived energy quantities:
  | Kinetic energy                :        1633.67552937 Ha       44454.57297804 eV
  | Electrostatic energy          :       -3113.16744474 Ha      -84713.59635166 eV
  | Energy correction for multipole
  | error in Hartree potential    :           0.03397150 Ha           0.92441161 eV
  | Sum of eigenvalues per atom                           :       -1998.75854086 eV
  | Total energy (T->0) per atom                          :       -3684.98142419 eV  <-- do not rely on this value for anything but (periodic) metals
  | Electronic free energy per atom                       :       -3684.98142419 eV
  Evaluating new KS density.
  Integration grid: deviation in total charge (<rho> - N_e) =   2.842171E-14

  Self-consistency convergence accuracy:
  | Change of charge density      :  0.6163E+00
  | Change of sum of eigenvalues  :  0.1377E+03 eV
  | Change of total energy        :  0.6374E+01 eV


------------------------------------------------------------
  End self-consistency iteration #     1       :  max(cpu_time)    wall_clock(cpu1)
  | Time for this iteration                     :        0.080 s           0.079 s
  | Charge density update                       :        0.027 s           0.027 s
  | Density mixing                              :        0.001 s           0.000 s
  | Hartree multipole update                    :        0.001 s           0.002 s
  | Hartree multipole summation                 :        0.017 s           0.016 s
  | Integration                                 :        0.029 s           0.029 s
  | Solution of K.-S. eqns.                     :        0.004 s           0.004 s
  | Total energy evaluation                     :        0.000 s           0.000 s

  Partial memory accounting:
  | Current value for overall tracked memory usage:
  |   Minimum:        0.273 MB (on task 23)
  |   Maximum:        0.292 MB (on task  0)
  |   Average:        0.287 MB
  | Peak value for overall tracked memory usage:
  |   Minimum:        1.292 MB (on task  7 after allocating wave)
  |   Maximum:        1.391 MB (on task  0 after allocating wave)
  |   Average:        1.332 MB
  | Largest tracked array allocation so far:
  |   Minimum:        0.691 MB (gradient_basis_wave on task  7)
  |   Maximum:        0.748 MB (gradient_basis_wave on task  0)
  |   Average:        0.713 MB
  Note:  These values currently only include a subset of arrays which are explicitly tracked.
  The "true" memory usage will be greater.
------------------------------------------------------------

------------------------------------------------------------
          Begin self-consistency iteration #    2

  Date     :  20220517, Time     :  115023.130
------------------------------------------------------------
  Pulay mixing of updated and previous charge densities.
  Renormalizing the density to the exact electron count on the 3D integration grid.
  | Formal number of electrons (from input files) :     120.0000000000
  | Integrated number of electrons on 3D grid     :     120.0000000000
  | Charge integration error                      :       0.0000000000
  | Normalization factor for density and gradient :       1.0000000000

  Evaluating partitioned Hartree potential by multipole expansion.
  | Original multipole sum: apparent total charge =   0.424557E-13
  | Sum of charges compensated after spline to logarithmic grids =   0.115182E-03
  | Analytical far-field extrapolation by fixed multipoles:
  | Hartree multipole sum: apparent total charge =   0.435380E-13
  Summing up the Hartree potential.
  Time summed over all CPUs for potential: real work        0.380 s, elapsed        0.386 s
  | RMS charge density error from multipole expansion :   0.118874E-01

  Integrating Hamiltonian matrix: batch-based integration.
  Time summed over all CPUs for integration: real work        0.649 s, elapsed        0.680 s

  Updating Kohn-Sham eigenvalues and eigenvectors using ELSI and the ELPA eigensolver.
  Starting ELPA eigensolver
  Finished transformation to standard eigenproblem
  | Time :     0.000 s
  Finished solving standard eigenproblem
  | Time :     0.003 s
  Finished back-transformation of eigenvectors
  | Time :     0.000 s

  Obtaining occupation numbers and chemical potential using ELSI.
  | Chemical potential (Fermi level):    -8.27398288 eV
  Highest occupied state (VBM) at     -9.19564160 eV
  | Occupation number:      2.00000000

  Lowest unoccupied state (CBM) at    -6.01862168 eV
  | Occupation number:      0.00000000

  Overall HOMO-LUMO gap:      3.17701992 eV.

  Checking to see if s.c.f. parameters should be adjusted.

  Total energy components:
  | Sum of eigenvalues            :        -884.77389427 Ha      -24075.92263263 eV
  | XC energy correction          :        -144.99206527 Ha       -3945.43483752 eV
  | XC potential correction       :         188.78978731 Ha        5137.23149217 eV
  | Free-atom electrostatic energy:        -782.32842943 Ha      -21288.23969861 eV
  | Hartree energy correction     :          -1.65455933 Ha         -45.02284999 eV
  | Entropy correction            :           0.00000000 Ha           0.00000000 eV
  | ---------------------------
  | Total energy                  :       -1624.95916099 Ha      -44217.38852657 eV
  | Total energy, T -> 0          :       -1624.95916099 Ha      -44217.38852657 eV  <-- do not rely on this value for anything but (periodic) metals
  | Electronic free energy        :       -1624.95916099 Ha      -44217.38852657 eV

  Derived energy quantities:
  | Kinetic energy                :        1629.51122668 Ha       44341.25653612 eV
  | Electrostatic energy          :       -3109.47832240 Ha      -84613.21022518 eV
  | Energy correction for multipole
  | error in Hartree potential    :           0.03633893 Ha           0.98883249 eV
  | Sum of eigenvalues per atom                           :       -2006.32688605 eV
  | Total energy (T->0) per atom                          :       -3684.78237721 eV  <-- do not rely on this value for anything but (periodic) metals
  | Electronic free energy per atom                       :       -3684.78237721 eV
  Evaluating new KS density.
  Integration grid: deviation in total charge (<rho> - N_e) =   1.421085E-14

  Self-consistency convergence accuracy:
  | Change of charge density      :  0.5519E+00
  | Change of sum of eigenvalues  : -0.9082E+02 eV
  | Change of total energy        :  0.2389E+01 eV


------------------------------------------------------------
  End self-consistency iteration #     2       :  max(cpu_time)    wall_clock(cpu1)
  | Time for this iteration                     :        0.082 s           0.079 s
  | Charge density update                       :        0.027 s           0.027 s
  | Density mixing                              :        0.004 s           0.001 s
  | Hartree multipole update                    :        0.001 s           0.002 s
  | Hartree multipole summation                 :        0.016 s           0.016 s
  | Integration                                 :        0.029 s           0.029 s
  | Solution of K.-S. eqns.                     :        0.004 s           0.004 s
  | Total energy evaluation                     :        0.000 s           0.000 s

  Partial memory accounting:
  | Current value for overall tracked memory usage:
  |   Minimum:        0.274 MB (on task 23)
  |   Maximum:        0.293 MB (on task  0)
  |   Average:        0.288 MB
  | Peak value for overall tracked memory usage:
  |   Minimum:        1.292 MB (on task  7 after allocating wave)
  |   Maximum:        1.391 MB (on task  0 after allocating wave)
  |   Average:        1.332 MB
  | Largest tracked array allocation so far:
  |   Minimum:        0.691 MB (gradient_basis_wave on task  7)
  |   Maximum:        0.748 MB (gradient_basis_wave on task  0)
  |   Average:        0.713 MB
  Note:  These values currently only include a subset of arrays which are explicitly tracked.
  The "true" memory usage will be greater.
------------------------------------------------------------

------------------------------------------------------------
          Begin self-consistency iteration #    3

  Date     :  20220517, Time     :  115023.215
------------------------------------------------------------
  Pulay mixing of updated and previous charge densities.
  Renormalizing the density to the exact electron count on the 3D integration grid.
  | Formal number of electrons (from input files) :     120.0000000000
  | Integrated number of electrons on 3D grid     :     120.0000000000
  | Charge integration error                      :       0.0000000000
  | Normalization factor for density and gradient :       1.0000000000

  Evaluating partitioned Hartree potential by multipole expansion.
  | Original multipole sum: apparent total charge =   0.827960E-13
  | Sum of charges compensated after spline to logarithmic grids =   0.151048E-03
  | Analytical far-field extrapolation by fixed multipoles:
  | Hartree multipole sum: apparent total charge =   0.840751E-13
  Summing up the Hartree potential.
  Time summed over all CPUs for potential: real work        0.380 s, elapsed        0.386 s
  | RMS charge density error from multipole expansion :   0.159000E-01

  Integrating Hamiltonian matrix: batch-based integration.
  Time summed over all CPUs for integration: real work        0.650 s, elapsed        0.681 s

  Updating Kohn-Sham eigenvalues and eigenvectors using ELSI and the ELPA eigensolver.
  Starting ELPA eigensolver
  Finished transformation to standard eigenproblem
  | Time :     0.001 s
  Finished solving standard eigenproblem
  | Time :     0.003 s
  Finished back-transformation of eigenvectors
  | Time :     0.000 s

  Obtaining occupation numbers and chemical potential using ELSI.
  | Chemical potential (Fermi level):    -8.24218656 eV
  Highest occupied state (VBM) at     -9.27327526 eV
  | Occupation number:      2.00000000

  Lowest unoccupied state (CBM) at    -6.31247897 eV
  | Occupation number:      0.00000000

  Overall HOMO-LUMO gap:      2.96079629 eV.

  Total energy components:
  | Sum of eigenvalues            :        -885.82371962 Ha      -24104.48983369 eV
  | XC energy correction          :        -144.95236287 Ha       -3944.35448016 eV
  | XC potential correction       :         188.73669414 Ha        5135.78675360 eV
  | Free-atom electrostatic energy:        -782.32842943 Ha      -21288.23969861 eV
  | Hartree energy correction     :          -0.59090427 Ha         -16.07932334 eV
  | Entropy correction            :           0.00000000 Ha           0.00000000 eV
  | ---------------------------
  | Total energy                  :       -1624.95872205 Ha      -44217.37658220 eV
  | Total energy, T -> 0          :       -1624.95872205 Ha      -44217.37658220 eV  <-- do not rely on this value for anything but (periodic) metals
  | Electronic free energy        :       -1624.95872205 Ha      -44217.37658220 eV

  Derived energy quantities:
  | Kinetic energy                :        1627.93219811 Ha       44298.28898282 eV
  | Electrostatic energy          :       -3107.93855729 Ha      -84571.31108486 eV
  | Energy correction for multipole
  | error in Hartree potential    :           0.04757147 Ha           1.29448549 eV
  | Sum of eigenvalues per atom                           :       -2008.70748614 eV
  | Total energy (T->0) per atom                          :       -3684.78138185 eV  <-- do not rely on this value for anything but (periodic) metals
  | Electronic free energy per atom                       :       -3684.78138185 eV
  Evaluating new KS density.
  Integration grid: deviation in total charge (<rho> - N_e) =   0.000000E+00

  Self-consistency convergence accuracy:
  | Change of charge density      :  0.1444E+00
  | Change of sum of eigenvalues  : -0.2857E+02 eV
  | Change of total energy        :  0.1194E-01 eV


------------------------------------------------------------
  End self-consistency iteration #     3       :  max(cpu_time)    wall_clock(cpu1)
  | Time for this iteration                     :        0.081 s           0.079 s
  | Charge density update                       :        0.026 s           0.026 s
  | Density mixing                              :        0.004 s           0.002 s
  | Hartree multipole update                    :        0.001 s           0.001 s
  | Hartree multipole summation                 :        0.016 s           0.016 s
  | Integration                                 :        0.029 s           0.028 s
  | Solution of K.-S. eqns.                     :        0.004 s           0.004 s
  | Total energy evaluation                     :        0.000 s           0.000 s

  Partial memory accounting:
  | Current value for overall tracked memory usage:
  |   Minimum:        0.274 MB (on task 23)
  |   Maximum:        0.293 MB (on task  0)
  |   Average:        0.288 MB
  | Peak value for overall tracked memory usage:
  |   Minimum:        1.292 MB (on task  7 after allocating wave)
  |   Maximum:        1.391 MB (on task  0 after allocating wave)
  |   Average:        1.332 MB
  | Largest tracked array allocation so far:
  |   Minimum:        0.691 MB (gradient_basis_wave on task  7)
  |   Maximum:        0.748 MB (gradient_basis_wave on task  0)
  |   Average:        0.713 MB
  Note:  These values currently only include a subset of arrays which are explicitly tracked.
  The "true" memory usage will be greater.
------------------------------------------------------------

------------------------------------------------------------
          Begin self-consistency iteration #    4

  Date     :  20220517, Time     :  115023.300
------------------------------------------------------------
  Pulay mixing of updated and previous charge densities.
  Renormalizing the density to the exact electron count on the 3D integration grid.
  | Formal number of electrons (from input files) :     120.0000000000
  | Integrated number of electrons on 3D grid     :     120.0000000000
  | Charge integration error                      :      -0.0000000000
  | Normalization factor for density and gradient :       1.0000000000

  Evaluating partitioned Hartree potential by multipole expansion.
  | Original multipole sum: apparent total charge =   0.276479E-13
  | Sum of charges compensated after spline to logarithmic grids =   0.173108E-03
  | Analytical far-field extrapolation by fixed multipoles:
  | Hartree multipole sum: apparent total charge =   0.293205E-13
  Summing up the Hartree potential.
  Time summed over all CPUs for potential: real work        0.380 s, elapsed        0.386 s
  | RMS charge density error from multipole expansion :   0.185150E-01

  Integrating Hamiltonian matrix: batch-based integration.
  Time summed over all CPUs for integration: real work        0.649 s, elapsed        0.678 s

  Updating Kohn-Sham eigenvalues and eigenvectors using ELSI and the ELPA eigensolver.
  Starting ELPA eigensolver
  Finished transformation to standard eigenproblem
  | Time :     0.000 s
  Finished solving standard eigenproblem
  | Time :     0.004 s
  Finished back-transformation of eigenvectors
  | Time :     0.000 s

  Obtaining occupation numbers and chemical potential using ELSI.
  | Chemical potential (Fermi level):    -8.29424536 eV
  Highest occupied state (VBM) at     -9.13806536 eV
  | Occupation number:      2.00000000

  Lowest unoccupied state (CBM) at    -6.35110881 eV
  | Occupation number:      0.00000000

  Overall HOMO-LUMO gap:      2.78695654 eV.

  Total energy components:
  | Sum of eigenvalues            :        -886.10120713 Ha      -24112.04065321 eV
  | XC energy correction          :        -144.92393888 Ha       -3943.58102416 eV
  | XC potential correction       :         188.69851234 Ha        5134.74777386 eV
  | Free-atom electrostatic energy:        -782.32842943 Ha      -21288.23969861 eV
  | Hartree energy correction     :          -0.29959712 Ha          -8.15245238 eV
  | Entropy correction            :           0.00000000 Ha           0.00000000 eV
  | ---------------------------
  | Total energy                  :       -1624.95466023 Ha      -44217.26605450 eV
  | Total energy, T -> 0          :       -1624.95466023 Ha      -44217.26605450 eV  <-- do not rely on this value for anything but (periodic) metals
  | Electronic free energy        :       -1624.95466023 Ha      -44217.26605450 eV

  Derived energy quantities:
  | Kinetic energy                :        1626.98953505 Ha       44272.63781559 eV
  | Electrostatic energy          :       -3107.02025639 Ha      -84546.32284593 eV
  | Energy correction for multipole
  | error in Hartree potential    :           0.05457907 Ha           1.48517196 eV
  | Sum of eigenvalues per atom                           :       -2009.33672110 eV
  | Total energy (T->0) per atom                          :       -3684.77217121 eV  <-- do not rely on this value for anything but (periodic) metals
  | Electronic free energy per atom                       :       -3684.77217121 eV
  Evaluating new KS density.
  Integration grid: deviation in total charge (<rho> - N_e) =   1.421085E-14

  Self-consistency convergence accuracy:
  | Change of charge density      :  0.1184E+00
  | Change of sum of eigenvalues  : -0.7551E+01 eV
  | Change of total energy        :  0.1105E+00 eV


------------------------------------------------------------
  End self-consistency iteration #     4       :  max(cpu_time)    wall_clock(cpu1)
  | Time for this iteration                     :        0.081 s           0.079 s
  | Charge density update                       :        0.026 s           0.026 s
  | Density mixing                              :        0.004 s           0.002 s
  | Hartree multipole update                    :        0.001 s           0.001 s
  | Hartree multipole summation                 :        0.016 s           0.016 s
  | Integration                                 :        0.029 s           0.029 s
  | Solution of K.-S. eqns.                     :        0.004 s           0.004 s
  | Total energy evaluation                     :        0.000 s           0.000 s

  Partial memory accounting:
  | Current value for overall tracked memory usage:
  |   Minimum:        0.274 MB (on task 23)
  |   Maximum:        0.293 MB (on task  0)
  |   Average:        0.288 MB
  | Peak value for overall tracked memory usage:
  |   Minimum:        1.292 MB (on task  7 after allocating wave)
  |   Maximum:        1.391 MB (on task  0 after allocating wave)
  |   Average:        1.332 MB
  | Largest tracked array allocation so far:
  |   Minimum:        0.691 MB (gradient_basis_wave on task  7)
  |   Maximum:        0.748 MB (gradient_basis_wave on task  0)
  |   Average:        0.713 MB
  Note:  These values currently only include a subset of arrays which are explicitly tracked.
  The "true" memory usage will be greater.
------------------------------------------------------------

------------------------------------------------------------
          Begin self-consistency iteration #    5

  Date     :  20220517, Time     :  115023.383
------------------------------------------------------------
  Pulay mixing of updated and previous charge densities.
  Renormalizing the density to the exact electron count on the 3D integration grid.
  | Formal number of electrons (from input files) :     120.0000000000
  | Integrated number of electrons on 3D grid     :     120.0000000000
  | Charge integration error                      :       0.0000000000
  | Normalization factor for density and gradient :       1.0000000000

  Evaluating partitioned Hartree potential by multipole expansion.
  | Original multipole sum: apparent total charge =   0.639541E-13
  | Sum of charges compensated after spline to logarithmic grids =   0.172915E-03
  | Analytical far-field extrapolation by fixed multipoles:
  | Hartree multipole sum: apparent total charge =   0.625766E-13
  Summing up the Hartree potential.
  Time summed over all CPUs for potential: real work        0.380 s, elapsed        0.386 s
  | RMS charge density error from multipole expansion :   0.183395E-01

  Integrating Hamiltonian matrix: batch-based integration.
  Time summed over all CPUs for integration: real work        0.649 s, elapsed        0.680 s

  Updating Kohn-Sham eigenvalues and eigenvectors using ELSI and the ELPA eigensolver.
  Starting ELPA eigensolver
  Finished transformation to standard eigenproblem
  | Time :     0.000 s
  Finished solving standard eigenproblem
  | Time :     0.003 s
  Finished back-transformation of eigenvectors
  | Time :     0.000 s

  Obtaining occupation numbers and chemical potential using ELSI.
  | Chemical potential (Fermi level):    -8.28179196 eV
  Highest occupied state (VBM) at     -9.15531430 eV
  | Occupation number:      2.00000000

  Lowest unoccupied state (CBM) at    -6.28003864 eV
  | Occupation number:      0.00000000

  Overall HOMO-LUMO gap:      2.87527567 eV.

  Total energy components:
  | Sum of eigenvalues            :        -885.94450755 Ha      -24107.77664065 eV
  | XC energy correction          :        -144.91774519 Ha       -3943.41248520 eV
  | XC potential correction       :         188.69050818 Ha        5134.52996951 eV
  | Free-atom electrostatic energy:        -782.32842943 Ha      -21288.23969861 eV
  | Hartree energy correction     :          -0.45415371 Ha         -12.35815120 eV
  | Entropy correction            :           0.00000000 Ha           0.00000000 eV
[...]
   Total forces(   7)            :  0.267143E+01  0.598804E+00  0.112804E+01
  atom #    8
   Hellmann-Feynman              :  0.617486E+00  0.151161E+00  0.962196E+00
   Ionic forces                  :  0.000000E+00  0.000000E+00  0.000000E+00
   Multipole                     :  0.111347E+00  0.307544E-01  0.340368E+00
   Hartree pot. SCF incomplete   :  0.135868E-04  0.308786E-05  0.552965E-05
   Pulay + GGA                   : -0.408062E+01 -0.933680E+00 -0.272936E+01
   ----------------------------------------------------------------
   Total forces(   8)            : -0.335178E+01 -0.751761E+00 -0.142679E+01
  atom #    9
   Hellmann-Feynman              :  0.280969E+00  0.219098E+01  0.555564E+00
   Ionic forces                  :  0.000000E+00  0.000000E+00  0.000000E+00
   Multipole                     :  0.203515E+00  0.650491E+00  0.165203E-01
   Hartree pot. SCF incomplete   :  0.556931E-05  0.221152E-04  0.501251E-05
   Pulay + GGA                   : -0.141738E+01 -0.664090E+01 -0.147515E+01
   ----------------------------------------------------------------
   Total forces(   9)            : -0.932887E+00 -0.379940E+01 -0.903055E+00
  atom #   10
   Hellmann-Feynman              :  0.115610E+01 -0.185644E+01  0.633025E+00
   Ionic forces                  :  0.000000E+00  0.000000E+00  0.000000E+00
   Multipole                     :  0.453822E+00 -0.507268E+00  0.385773E-01
   Hartree pot. SCF incomplete   :  0.141754E-04 -0.176375E-04  0.579960E-05
   Pulay + GGA                   : -0.402000E+01  0.540413E+01 -0.170439E+01
   ----------------------------------------------------------------
   Total forces(  10)            : -0.241006E+01  0.304041E+01 -0.103278E+01
  atom #   11
   Hellmann-Feynman              : -0.278253E+01 -0.541979E+00  0.309192E+01
   Ionic forces                  :  0.000000E+00  0.000000E+00  0.000000E+00
   Multipole                     : -0.374685E+00 -0.708705E-01  0.532634E+00
   Hartree pot. SCF incomplete   : -0.137239E-04 -0.304970E-05 -0.445470E-05
   Pulay + GGA                   :  0.449317E+01  0.869401E+00 -0.532450E+01
   ----------------------------------------------------------------
   Total forces(  11)            :  0.133594E+01  0.256549E+00 -0.169995E+01
  atom #   12
   Hellmann-Feynman              :  0.135419E+01  0.258740E+00 -0.181473E+01
   Ionic forces                  :  0.000000E+00  0.000000E+00  0.000000E+00
   Multipole                     :  0.514052E+00  0.101841E+00 -0.477965E+00
   Hartree pot. SCF incomplete   :  0.975019E-05  0.191335E-05 -0.103444E-04
   Pulay + GGA                   : -0.492469E+01 -0.964370E+00  0.525586E+01
   ----------------------------------------------------------------
   Total forces(  12)            : -0.305644E+01 -0.603787E+00  0.296315E+01


  Self-consistency convergence accuracy:
  | Change of charge density      :  0.6437E-06
  | Change of sum of eigenvalues  :  0.1783E-04 eV
  | Change of total energy        : -0.9002E-08 eV
  | Change of forces              :  0.2810E-05 eV/A

  Writing Kohn-Sham eigenvalues.

  State    Occupation    Eigenvalue [Ha]    Eigenvalue [eV]
      1       2.00000         -55.705309        -1515.81857
      2       2.00000         -55.649699        -1514.30535
      3       2.00000         -55.591388        -1512.71864
      4       2.00000         -24.317555         -661.71435
      5       2.00000         -24.317551         -661.71423
      6       2.00000         -24.275404         -660.56736
      7       2.00000         -24.274747         -660.54946
      8       2.00000         -24.234076         -659.44276
      9       2.00000         -24.215945         -658.94940
     10       2.00000         -24.215937         -658.94917
     11       2.00000         -24.190056         -658.24493
     12       2.00000         -24.189129         -658.21968
     13       2.00000          -4.150113         -112.93031
     14       2.00000          -4.097078         -111.48717
     15       2.00000          -4.048993         -110.17870
     16       2.00000          -2.743700          -74.65987
     17       2.00000          -2.741521          -74.60058
     18       2.00000          -2.740012          -74.55952
     19       2.00000          -2.692620          -73.26991
     20       2.00000          -2.687699          -73.13601
     21       2.00000          -2.685895          -73.08693
     22       2.00000          -2.641918          -71.89025
     23       2.00000          -2.641590          -71.88131
     24       2.00000          -2.637538          -71.77107
     25       2.00000          -1.179456          -32.09464
     26       2.00000          -1.170748          -31.85766
     27       2.00000          -1.124176          -30.59039
     28       2.00000          -1.111070          -30.23377
     29       2.00000          -1.067868          -29.05816
     30       2.00000          -1.053892          -28.67786
     31       2.00000          -1.051562          -28.61446
     32       2.00000          -1.047194          -28.49559
     33       2.00000          -1.040619          -28.31668
     34       2.00000          -0.564693          -15.36607
     35       2.00000          -0.534737          -14.55092
     36       2.00000          -0.512901          -13.95676
     37       2.00000          -0.506445          -13.78106
     38       2.00000          -0.491053          -13.36223
     39       2.00000          -0.484961          -13.19646
     40       2.00000          -0.475205          -12.93099
     41       2.00000          -0.468760          -12.75560
     42       2.00000          -0.446166          -12.14080
     43       2.00000          -0.432565          -11.77068
     44       2.00000          -0.428146          -11.65044
     45       2.00000          -0.427082          -11.62148
     46       2.00000          -0.417267          -11.35441
     47       2.00000          -0.415947          -11.31851
     48       2.00000          -0.412464          -11.22372
     49       2.00000          -0.402068          -10.94081
     50       2.00000          -0.386948          -10.52938
     51       2.00000          -0.376172          -10.23615
     52       2.00000          -0.373058          -10.15143
     53       2.00000          -0.364952           -9.93085
     54       2.00000          -0.362108           -9.85347
     55       2.00000          -0.357961           -9.74060
     56       2.00000          -0.355624           -9.67703
     57       2.00000          -0.354139           -9.63661
     58       2.00000          -0.353544           -9.62043
     59       2.00000          -0.344362           -9.37057
     60       2.00000          -0.336485           -9.15624
     61       0.00000          -0.229815           -6.25359
     62       0.00000          -0.170298           -4.63404
     63       0.00000          -0.104873           -2.85375
     64       0.00000          -0.094347           -2.56731
     65       0.00000          -0.082233           -2.23767
     66       0.00000          -0.049161           -1.33773
     67       0.00000          -0.031494           -0.85701
     68       0.00000          -0.002430           -0.06613
     69       0.00000           0.005083            0.13832
     70       0.00000           0.031630            0.86070
     71       0.00000           0.059031            1.60632
     72       0.00000           0.090801            2.47081
     73       0.00000           0.106742            2.90459
     74       0.00000           0.118008            3.21116
     75       0.00000           0.136157            3.70502
     76       0.00000           0.155694            4.23666
     77       0.00000           0.163390            4.44607
     78       0.00000           0.168307            4.57986
     79       0.00000           0.187849            5.11163
     80       0.00000           0.189379            5.15326
     81       0.00000           0.190014            5.17055
     82       0.00000           0.196319            5.34211
     83       0.00000           0.205808            5.60031
     84       0.00000           0.211082            5.74384
     85       0.00000           0.212474            5.78172
     86       0.00000           0.217790            5.92636
     87       0.00000           0.230749            6.27899
     88       0.00000           0.239690            6.52228
     89       0.00000           0.265642            7.22848
     90       0.00000           0.270527            7.36142
     91       0.00000           0.283879            7.72474
     92       0.00000           0.308772            8.40211
     93       0.00000           0.310999            8.46271
     94       0.00000           0.317082            8.62824
     95       0.00000           0.352469            9.59118
     96       0.00000           0.352920            9.60345

  Highest occupied state (VBM) at     -9.15623507 eV
  | Occupation number:      2.00000000

  Lowest unoccupied state (CBM) at    -6.25359123 eV
  | Occupation number:      0.00000000

  Overall HOMO-LUMO gap:      2.90264385 eV.
  | Chemical Potential                          :    -8.27258733 eV

  Self-consistency cycle converged.


------------------------------------------------------------
  End self-consistency iteration #    14       :  max(cpu_time)    wall_clock(cpu1)
  | Time for this iteration                     :        0.260 s           0.258 s
  | Charge density & force component update     :        0.139 s           0.138 s
  | Density mixing                              :        0.005 s           0.002 s
  | Hartree multipole update                    :        0.001 s           0.001 s
  | Hartree multipole summation                 :        0.049 s           0.050 s
  | Hartree pot. SCF incomplete forces          :        0.033 s           0.033 s
  | Integration                                 :        0.029 s           0.028 s
  | Solution of K.-S. eqns.                     :        0.004 s           0.004 s
  | Total energy evaluation                     :        0.000 s           0.000 s

  Partial memory accounting:
  | Current value for overall tracked memory usage:
  |   Minimum:        0.274 MB (on task 23)
  |   Maximum:        0.293 MB (on task  0)
  |   Average:        0.289 MB
  | Peak value for overall tracked memory usage:
  |   Minimum:        2.849 MB (on task  7 after allocating hessian_basis_wave)
  |   Maximum:        3.047 MB (on task  0 after allocating hessian_basis_wave)
  |   Average:        2.929 MB
  | Largest tracked array allocation so far:
  |   Minimum:        1.381 MB (hessian_basis_wave on task  7)
  |   Maximum:        1.495 MB (hessian_basis_wave on task  0)
  |   Average:        1.427 MB
  Note:  These values currently only include a subset of arrays which are explicitly tracked.
  The "true" memory usage will be greater.
------------------------------------------------------------
  Removing unitary transformations (pure translations, rotations) from forces on atoms.
  Atomic forces before filtering:
  | Net force on center of mass :  -0.125271E-02  0.187382E-02 -0.253411E-05 eV/A
  | Net torque on center of mass:  -0.156068E-02 -0.395705E-02 -0.151102E-03 eV
  Atomic forces after filtering:
  | Net force on center of mass :  -0.713624E-15 -0.267609E-15  0.713624E-15 eV/A
  | Net torque on center of mass:  -0.320989E-14 -0.755268E-15  0.245462E-14 eV

  Energy and forces in a compact form:
  | Total energy uncorrected      :         -0.442172561600115E+05 eV
  | Total energy corrected        :         -0.442172561600115E+05 eV  <-- do not rely on this value for anything but (periodic) metals
  | Electronic free energy        :         -0.442172561600115E+05 eV
  Total atomic forces (unitary forces cleaned) [eV/Ang]:
  |    1          0.363526506378722E+01          0.769959534832574E+00         -0.788315617703767E+00
  |    2          0.222047657081626E+01          0.477547429171091E+00         -0.111661397080598E+00
  |    3         -0.434867764694433E+01         -0.946093481956459E+00         -0.415336212696431E+00
  |    4          0.989452385107905E+00          0.255634119205691E+00          0.220863993715058E+01
  |    5          0.105901164103775E+01          0.296414461469016E+01         -0.102348485584505E-01
  |    6          0.218737460349816E+01         -0.226093731396241E+01          0.884449414506722E-01
  |    7          0.267160841059845E+01          0.598587916941607E+00          0.112807554699707E+01
  |    8         -0.335165789766802E+01         -0.751894457757373E+00         -0.142689069410022E+01
  |    9         -0.932658945340935E+00         -0.379964923511374E+01         -0.903035682939110E+00
  |   10         -0.240976758166446E+01          0.304017025325259E+01         -0.103292465514356E+01
  |   11          0.133605874575753E+01          0.256336193433457E+00         -0.169980748564247E+01
  |   12         -0.305648534898553E+01         -0.603805572737186E+00          0.296304616826630E+01

  ------------------------------------ 
  Start decomposition of the XC Energy 
  ------------------------------------ 
  X and C from original XC functional choice 
  Hartree-Fock Energy :          0.000000000 Ha              0.000000000 eV
  X Energy            :       -139.997609043 Ha          -3809.528768741 eV
  C Energy            :         -4.924961330 Ha           -134.015016393 eV
  Total XC Energy     :       -144.922570373 Ha          -3943.543785134 eV
  ------------------------------------ 
  LDA X and C from self-consistent density 
  X Energy LDA        :       -132.558343380 Ha          -3607.096050399 eV
  C Energy LDA        :         -8.811360426 Ha           -239.769316515 eV
  ------------------------------------ 
  End decomposition of the XC Energy 
  ------------------------------------ 

------------------------------------------------------------

------------------------------------------------------------------------------
  Final output of selected total energy values:

  The following output summarizes some interesting total energy values
  at the end of a run (AFTER all relaxation, molecular dynamics, etc.).

  | Total energy of the DFT / Hartree-Fock s.c.f. calculation      :         -44217.256160011 eV
  | Final zero-broadening corrected energy (caution - metals only) :         -44217.256160011 eV
  | For reference only, the value of 1 Hartree used in FHI-aims is :             27.211384500 eV

  Before relying on these values, please be sure to understand exactly which
  total energy value is referred to by a given number. Different objects may
  all carry the same name 'total energy'. Definitions:

  Total energy of the DFT / Hartree-Fock s.c.f. calculation:
  | Note that this energy does not include ANY quantities calculated after the
  | s.c.f. cycle, in particular not ANY RPA, MP2, etc. many-body perturbation terms.

  Final zero-broadening corrected energy:
  | For metallic systems only, a broadening of the occupation numbers at the Fermi
  | level can be extrapolated back to zero broadening by an electron-gas inspired
  | formula. For all systems that are not real metals, this value can be
  | meaningless and should be avoided.

------------------------------------------------------------------------------
  Methods described in the following list of references were used in this FHI-aims run.
  If you publish the results, please make sure to cite these reference if they apply.
  FHI-aims is an academic code, and for our developers (often, Ph.D. students
  and postdocs), scientific credit in the community is essential.
  Thank you for helping us!

  For any use of FHI-aims, please cite:

    Volker Blum, Ralf Gehrke, Felix Hanke, Paula Havu, Ville Havu,
    Xinguo Ren, Karsten Reuter, and Matthias Scheffler
    'Ab initio molecular simulations with numeric atom-centered orbitals'
    Computer Physics Communications 180, 2175-2196 (2009)
    http://dx.doi.org/10.1016/j.cpc.2009.06.022


  The ELSI infrastructure was used in your run to solve the Kohn-Sham electronic structure.
  Please check out http://elsi-interchange.org to learn more.
  If scalability is important for your project, please acknowledge ELSI by citing:

    V. W-z. Yu, F. Corsetti, A. Garcia, W. P. Huhn, M. Jacquelin, W. Jia,
    B. Lange, L. Lin, J. Lu, W. Mi, A. Seifitokaldani, A. Vazquez-Mayagoitia,
    C. Yang, H. Yang, and V. Blum
    'ELSI: A unified software interface for Kohn-Sham electronic structure solvers'
    Computer Physics Communications 222, 267-285 (2018).
    http://dx.doi.org/10.1016/j.cpc.2017.09.007


  For the real-space grid partitioning and parallelization used in this calculation, please cite:

    Ville Havu, Volker Blum, Paula Havu, and Matthias Scheffler,
    'Efficient O(N) integration for all-electron electronic structure calculation'
    'using numerically tabulated basis functions'
    Journal of Computational Physics 228, 8367-8379 (2009).
    http://dx.doi.org/10.1016/j.jcp.2009.08.008

  Of course, there are many other important community references, e.g., those cited in the
  above references. Our list is limited to references that describe implementations in the
  FHI-aims code. The reason is purely practical (length of this list) - please credit others as well.

------------------------------------------------------------
          Leaving FHI-aims.
          Date     :  20220517, Time     :  115024.608

          Computational steps:
          | Number of self-consistency cycles          :           14
          | Number of SCF (re)initializations          :            1

          Detailed time accounting                     :  max(cpu_time)    wall_clock(cpu1)
          | Total time                                  :        1.866 s           2.021 s
          | Preparation time                            :        0.184 s           0.184 s
          | Boundary condition initalization            :        0.000 s           0.001 s
          | Grid partitioning                           :        0.035 s           0.035 s
          | Preloading free-atom quantities on grid     :        0.015 s           0.015 s
          | Free-atom superposition energy              :        0.005 s           0.004 s
          | Total time for integrations                 :        0.445 s           0.446 s
          | Total time for solution of K.-S. equations  :        0.068 s           0.067 s
          | Total time for density & force components   :        0.623 s           0.622 s
          | Total time for mixing                       :        0.058 s           0.031 s
          | Total time for Hartree multipole update     :        0.018 s           0.020 s
          | Total time for Hartree multipole sum        :        0.295 s           0.294 s
          | Total time for total energy evaluation      :        0.002 s           0.001 s
          | Total time NSC force correction             :        0.065 s           0.065 s
          | Total time for scaled ZORA corrections      :        0.000 s           0.000 s

          Partial memory accounting:
          | Residual value for overall tracked memory usage across tasks:     0.000000 MB (should be 0.000000 MB)
          | Peak values for overall tracked memory usage:
          |   Minimum:        2.849 MB (on task  7 after allocating hessian_basis_wave)
          |   Maximum:        3.047 MB (on task  0 after allocating hessian_basis_wave)
          |   Average:        2.929 MB
          | Largest tracked array allocation:
          |   Minimum:        1.381 MB (hessian_basis_wave on task  7)
          |   Maximum:        1.495 MB (hessian_basis_wave on task  0)
          |   Average:        1.427 MB
          Note:  These values currently only include a subset of arrays which are explicitly tracked.
          The "true" memory usage will be greater.

          Have a nice day.
------------------------------------------------------------
