********************************************************************************
*                       GENERAL UTILITY LATTICE PROGRAM                        *
*                                 Julian Gale                                  *
*                       Curtin Institute for Computation                       *
*                           Department of Chemistry                            *
*                    Curtin University, Western Australia                      *
********************************************************************************
* Version = 5.1.1 * Last modified =  24th November 2018                        *
********************************************************************************
*  optimise     - perform optimisation run                                     *
*  conp         - constant pressure calculation                                *
*  shell        - only shells and radii to be optimised                        *
*  phonon       - calculate phonons for final geometry                         *
*  eigenvectors - output phonon eigenvectors                                   *
********************************************************************************

  Job Started  at 14:39.49 25th May        2022                               

  Number of CPUs =     1

  Host name      = login03                                 


  Total number of configurations input =      1

********************************************************************************
*  Input for Configuration =   1                                               *
********************************************************************************

  Formula = Al3F9                                                       

  Number of irreducible atoms/shells =      21


  Total number atoms/shells =      21

  Dimensionality = 0               :  Cluster


  Charge on cluster =  -0.000000


  Initial cluster dipoles : x =      0.805883 e.Angs
                            y =      0.318931 e.Angs
                            z =     -0.553885 e.Angs

  Temperature of configuration =  0.000     K 

  Symmetry number =      1

  Cartesian coordinates of cluster :

--------------------------------------------------------------------------------
   No.  Atomic       x           y          z         Charge      Occupancy
        Label      (Angs)      (Angs)     (Angs)        (e)         (Frac)  
--------------------------------------------------------------------------------
      1 Al    c     -0.1042      1.6650      2.1333     3.00000    1.000000    
      2 Al    c      2.5182      2.6443      1.8119     3.00000    1.000000    
      3 Al    c      1.3988      2.6114     -0.6332     3.00000    1.000000    
      4 F     c      0.9712      3.0984      2.8739     0.59000    1.000000    
      5 F     c     -1.6400      2.6501      2.1588     0.59000    1.000000    
      6 F     c     -0.4489     -0.0202      2.7378     0.59000    1.000000    
      7 F     c      1.7939      0.9071      1.9037     0.59000    1.000000    
      8 F     c      3.0018      1.8400     -0.0572     0.59000    1.000000    
      9 F     c      1.0637      3.0438     -2.3618     0.59000    1.000000    
     10 F     c      1.7527      3.9877      0.6430     0.59000    1.000000    
     11 F     c      4.1757      3.0981      2.3837     0.59000    1.000000    
     12 F     c     -0.0376      1.8381      0.2077     0.59000    1.000000    
     13 F     s      0.9712 *    3.0984 *    2.8739 *  -1.59000    1.000000    
     14 F     s     -1.6400 *    2.6501 *    2.1588 *  -1.59000    1.000000    
     15 F     s     -0.4489 *   -0.0202 *    2.7378 *  -1.59000    1.000000    
     16 F     s      1.7939 *    0.9071 *    1.9037 *  -1.59000    1.000000    
     17 F     s      3.0018 *    1.8400 *   -0.0572 *  -1.59000    1.000000    
     18 F     s      1.0637 *    3.0438 *   -2.3618 *  -1.59000    1.000000    
     19 F     s      1.7527 *    3.9877 *    0.6430 *  -1.59000    1.000000    
     20 F     s      4.1757 *    3.0981 *    2.3837 *  -1.59000    1.000000    
     21 F     s     -0.0376 *    1.8381 *    0.2077 *  -1.59000    1.000000    
--------------------------------------------------------------------------------


  Brillouin zone sampling points :

--------------------------------------------------------------------------------
  Point number          x          y          z            Weight
--------------------------------------------------------------------------------
        1           0.000000   0.000000   0.000000     1.00000000
--------------------------------------------------------------------------------


********************************************************************************
*  General input information                                                   *
********************************************************************************

  Species output for all configurations : 

--------------------------------------------------------------------------------
  Species    Type    Atomic    Atomic    Charge       Radii (Angs)     Library
                     Number     Mass       (e)     Cova   Ionic  VDW   Symbol
--------------------------------------------------------------------------------
    Al       Core       13      26.98   3.000000   1.350  0.000  2.050          
    F        Core        9      19.00   0.590000   0.710  0.000  1.300          
    F        Shell       9       0.00  -1.590000   0.710  0.000  1.300          
--------------------------------------------------------------------------------


  Accuracy factor for short range sums = 12.000

  Time limit = Infinity

  Maximum range for interatomic potentials =    100000.000000 Angstroms

  General interatomic potentials :

--------------------------------------------------------------------------------
Atom  Types   Potential      Parameter       Value         Units   Cutoffs(Ang)
  1     2                                                            Min /  Max 
--------------------------------------------------------------------------------
Al   c F    s Buckingham    Buckingham A     3760.0008    eV        0.000 10.000
                            Buckingham rho  0.22200000    Ang       
                            Buckingham C     0.0000000    eV*Ang^6  
--------------------------------------------------------------------------------
F    s F    s Buck 4 range  Buck4 A          1127.7000    eV        0.000 12.000
                            Buck4 rho       0.27530000    Ang       
                            Buck4 C          15.830000    eV*Ang^6  
                            Buck4 minimum    2.7900000    Ang       
--------------------------------------------------------------------------------
F    c F    s Spring (c-s)  Spring k 2       20.770000    eV*Ang^-2 0.000  0.800
                            Spring k 4       0.0000000    eV*Ang^-4 
--------------------------------------------------------------------------------

********************************************************************************
*  Output for configuration   1                                                *
********************************************************************************


  Components of energy : 

--------------------------------------------------------------------------------
  Interatomic potentials     =          10.38302668 eV    
  Monopole - monopole (real) =        -178.34163965 eV    
--------------------------------------------------------------------------------
  Total lattice energy       =        -167.95861297 eV    
--------------------------------------------------------------------------------
  Total lattice energy       =          -16205.4387 kJ/mol
--------------------------------------------------------------------------------


  Number of variables =       27

  Maximum number of calculations  =          2000
  Maximum Hessian update interval =            10
  Maximum step size               =   1.000000000
  Maximum parameter tolerance     =   0.000001000
  Maximum function  tolerance     =   0.000010000
  Maximum gradient  tolerance     =   0.000000010
  Maximum gradient  component     =   0.010000000

  Symmetry not applied to optimisation

  Newton-Raphson optimiser to be used

  BFGS hessian update to be used

  Lower half triangular hessian to be used

  Minimiser to switch to RFO
  When gradient norm is less than     0.010000

  Shell only optimisation

  Start of cluster optimisation :

  Cycle:      0 Energy:      -167.958613  Gnorm:      1.494699  CPU:    0.005
  ** Hessian calculated **
  Cycle:      1 Energy:      -184.906850  Gnorm:      0.591690  CPU:    0.006
  ** Hessian calculated **
  Cycle:      2 Energy:      -186.349408  Gnorm:      0.035070  CPU:    0.009
  Cycle:      3 Energy:      -186.356606  Gnorm:      0.006243  CPU:    0.010
  ** Hessian has required structure
  Cycle:      4 Energy:      -186.356845  Gnorm:      0.001783  CPU:    0.012
  ** Hessian has required structure
  Cycle:      5 Energy:      -186.356870  Gnorm:      0.000696  CPU:    0.014
  ** Hessian has required structure
  Cycle:      6 Energy:      -186.356874  Gnorm:      0.000336  CPU:    0.015
  ** Hessian has required structure
  Cycle:      7 Energy:      -186.356874  Gnorm:      0.000191  CPU:    0.017
  ** Hessian has required structure
  Cycle:      8 Energy:      -186.356875  Gnorm:      0.000128  CPU:    0.018
  ** Hessian has required structure
  Cycle:      9 Energy:      -186.356875  Gnorm:      0.000070  CPU:    0.020
  ** Hessian has required structure
  Cycle:     10 Energy:      -186.356875  Gnorm:      0.000052  CPU:    0.021
  ** Hessian has required structure
  Cycle:     11 Energy:      -186.356875  Gnorm:      0.000035  CPU:    0.023
  ** Hessian has required structure
  Cycle:     12 Energy:      -186.356875  Gnorm:      0.000000  CPU:    0.024
  ** Hessian has required structure
  Cycle:     13 Energy:      -186.356875  Gnorm:      0.000000  CPU:    0.026
  ** Hessian has required structure
  Cycle:     14 Energy:      -186.356875  Gnorm:      0.000000  CPU:    0.027
  ** Hessian has required structure
  Cycle:     15 Energy:      -186.356875  Gnorm:      0.000000  CPU:    0.029
  ** Hessian has required structure
  Cycle:     16 Energy:      -186.356875  Gnorm:      0.000000  CPU:    0.031
  ** Hessian has required structure
  Cycle:     17 Energy:      -186.356875  Gnorm:      0.000000  CPU:    0.032
  ** Hessian has required structure
  Cycle:     18 Energy:      -186.356875  Gnorm:      0.000000  CPU:    0.034
  ** Hessian calculated **

  XYZ File written as 004/2/sp_mod_20/sp_mod_20_eig.xyz



  **** Optimisation achieved ****


  Final energy =    -186.35687469 eV
  Final Gnorm  =       0.00000005

  Components of energy : 

--------------------------------------------------------------------------------
  Interatomic potentials     =          37.53067541 eV    
  Monopole - monopole (real) =        -223.88755010 eV    
--------------------------------------------------------------------------------
  Total lattice energy       =        -186.35687469 eV    
--------------------------------------------------------------------------------
  Total lattice energy       =          -17980.5897 kJ/mol
--------------------------------------------------------------------------------

  Final cartesian coordinates of atoms :

--------------------------------------------------------------------------------
   No.  Atomic        x           y          z          Radius
        Label       (Angs)      (Angs)     (Angs)       (Angs) 
--------------------------------------------------------------------------------
     1  Al    c    -0.104213    1.664974    2.133282    0.000000
     2  Al    c     2.518223    2.644276    1.811862    0.000000
     3  Al    c     1.398786    2.611401   -0.633214    0.000000
     4  F     c     0.971202    3.098449    2.873903    0.000000
     5  F     c    -1.640041    2.650102    2.158833    0.000000
     6  F     c    -0.448891   -0.020182    2.737843    0.000000
     7  F     c     1.793907    0.907092    1.903666    0.000000
     8  F     c     3.001783    1.839976   -0.057200    0.000000
     9  F     c     1.063727    3.043766   -2.361841    0.000000
    10  F     c     1.752729    3.987684    0.643030    0.000000
    11  F     c     4.175700    3.098084    2.383750    0.000000
    12  F     c    -0.037611    1.838053    0.207692    0.000000
    13  F     s     1.039101    2.913048    2.695618    0.000000
    14  F     s    -1.415916    2.520997    2.152363    0.000000
    15  F     s    -0.398098    0.226875    2.649458    0.000000
    16  F     s     1.759662    1.180052    1.897381    0.000000
    17  F     s     2.773420    1.985344   -0.020424    0.000000
    18  F     s     1.121484    2.971329   -2.083624    0.000000
    19  F     s     1.786090    3.706732    0.609221    0.000000
    20  F     s     3.908089    3.031171    2.303305    0.000000
    21  F     s     0.177159    1.920827    0.272729    0.000000
--------------------------------------------------------------------------------


  Final Cartesian derivatives :

--------------------------------------------------------------------------------
   No.  Atomic          x             y             z           Radius
        Label       (eV/Angs)     (eV/Angs)    (eV/Angs)      (eV/Angs)
--------------------------------------------------------------------------------
      1 Al    c       0.000000      0.000000      0.000000      0.000000
      2 Al    c       0.000000      0.000000      0.000000      0.000000
      3 Al    c       0.000000      0.000000      0.000000      0.000000
      4 F     c       0.000000      0.000000      0.000000      0.000000
      5 F     c       0.000000      0.000000      0.000000      0.000000
      6 F     c       0.000000      0.000000      0.000000      0.000000
      7 F     c       0.000000      0.000000      0.000000      0.000000
      8 F     c       0.000000      0.000000      0.000000      0.000000
      9 F     c       0.000000      0.000000      0.000000      0.000000
     10 F     c       0.000000      0.000000      0.000000      0.000000
     11 F     c       0.000000      0.000000      0.000000      0.000000
     12 F     c       0.000000      0.000000      0.000000      0.000000
     13 F     s       0.000000      0.000000      0.000000      0.000000
     14 F     s      -0.000000     -0.000000     -0.000000      0.000000
     15 F     s       0.000000     -0.000000     -0.000000      0.000000
     16 F     s       0.000000     -0.000000     -0.000000      0.000000
     17 F     s      -0.000001      0.000000     -0.000000      0.000000
     18 F     s       0.000000      0.000000     -0.000001      0.000000
     19 F     s      -0.000000      0.000000      0.000000      0.000000
     20 F     s       0.000000      0.000001     -0.000000      0.000000
     21 F     s      -0.000000      0.000000      0.000000      0.000000
--------------------------------------------------------------------------------
  Maximum abs         0.000001      0.000001      0.000001      0.000000
--------------------------------------------------------------------------------


  Born effective charge tensors : 

-------------------------------------------------------------------------------
  Atom             x           y             z
-------------------------------------------------------------------------------
    1 Al    x       1.3992      0.1987     -0.0913
            y       0.1675      0.7134      0.1154
            z      -0.1687      0.1024      1.5408
-------------------------------------------------------------------------------
    2 Al    x       0.7239     -0.2800     -0.2087
            y      -0.2368      0.9903      0.1132
            z      -0.1079      0.1464      1.7015
-------------------------------------------------------------------------------
    3 Al    x       0.9823      0.0721     -0.1081
            y       0.0765      1.1869      0.0782
            z      -0.1286      0.0868      0.6517
-------------------------------------------------------------------------------
    4 F     x      -0.3936      0.0003      0.0316
            y      -0.1266     -0.3644     -0.0134
            z      -0.0124     -0.0065     -0.3641
-------------------------------------------------------------------------------
    5 F     x      -0.2107     -0.2571      0.0187
            y      -0.2419     -0.3611     -0.0028
            z       0.0186      0.0154     -0.5566
-------------------------------------------------------------------------------
    6 F     x      -0.5449      0.0742     -0.0189
            y       0.0856     -0.0661     -0.1582
            z       0.0061     -0.1651     -0.4803
-------------------------------------------------------------------------------
    7 F     x      -0.6184      0.1399     -0.0029
            y       0.2244     -0.2019      0.0173
            z       0.0106     -0.0042     -0.4661
-------------------------------------------------------------------------------
    8 F     x      -0.1783     -0.0641      0.2098
            y      -0.0787     -0.3263     -0.1861
            z       0.0760     -0.1033     -0.6651
-------------------------------------------------------------------------------
    9 F     x      -0.5089     -0.0333      0.1038
            y      -0.0455     -0.5063     -0.1384
            z       0.1319     -0.1266      0.0246
-------------------------------------------------------------------------------
   10 F     x      -0.3343     -0.0022     -0.0050
            y       0.0207     -0.2919      0.1019
            z       0.0337      0.0024     -0.3262
-------------------------------------------------------------------------------
   11 F     x      -0.0246      0.1385      0.1814
            y       0.1462     -0.4933      0.0439
            z       0.1946      0.0536     -0.5053
-------------------------------------------------------------------------------
   12 F     x      -0.2915      0.0130     -0.1104
            y       0.0086     -0.2794      0.0290
            z      -0.0539     -0.0014     -0.5550
-------------------------------------------------------------------------------




  Moment of inertia tensor (10^-46 x kgm^2): 

-------------------------------------------------------------------------------
                x           y           z           Principal axis system
-------------------------------------------------------------------------------
       x        137.15      -21.08       11.53          115.174470
       y        -21.08      189.72       18.45          148.692224
       z         11.53       18.45      137.26          200.260392
-------------------------------------------------------------------------------
  Centre of mass (Ang) =     1.210156     2.282832     1.145748
-------------------------------------------------------------------------------


  Vibrational Frequency Calculation : 

--------------------------------------------------------------------------------

  Frequencies (cm-1) and Eigenvectors : 

  Frequency     -12.5616   -0.0000   -0.0000    0.0000    7.9302   14.3748
  IR Intensity    0.0004    0.0000    0.0000    0.0000    0.0007    0.0006
     in X         0.0001    0.0000    0.0000    0.0000    0.0003    0.0000
     in Y         0.0004    0.0000    0.0000    0.0000    0.0000    0.0005
     in Z         0.0000    0.0000    0.0000    0.0000    0.0004    0.0001
  Raman Intsty    0.0062    0.0000    0.0000    0.0000    0.0002    0.0000

     1 x       0.061503 -0.201938 -0.178315  0.185779 -0.162292 -0.058755
     1 y      -0.160297  0.139665 -0.274192 -0.111363  0.007824  0.238141
     1 z      -0.019620 -0.216342 -0.010568 -0.245303 -0.203807  0.072947
     2 x       0.048582 -0.201938 -0.178315  0.185779 -0.069729  0.098401
     2 y      -0.137893  0.139665 -0.274192 -0.111363 -0.102870 -0.229894
     2 z      -0.035382 -0.216342 -0.010568 -0.245303  0.190886 -0.072680
     3 x      -0.121092 -0.201938 -0.178315  0.185779  0.253495 -0.034304
     3 y       0.323900  0.139665 -0.274192 -0.111363  0.097893 -0.042013
     3 z       0.044003 -0.216342 -0.010568 -0.245303  0.042534 -0.012833
     4 x       0.110123 -0.169463 -0.149639  0.155902 -0.162579  0.195699
     4 y      -0.253933  0.117204 -0.230096 -0.093454 -0.057831  0.045821
     4 z       0.130351 -0.181550 -0.008868 -0.205853 -0.004910  0.000940
     5 x       0.062135 -0.169463 -0.149639  0.155902 -0.101972  0.099591
     5 y      -0.124003  0.117204 -0.230096 -0.093454  0.062391  0.429407
     5 z       0.206018 -0.181550 -0.008868 -0.205853 -0.271256  0.114691
     6 x       0.071811 -0.169463 -0.149639  0.155902 -0.273198 -0.268168
     6 y      -0.203558  0.117204 -0.230096 -0.093454 -0.020729  0.260899
     6 z      -0.196583 -0.181550 -0.008868 -0.205853 -0.325233  0.104511
     7 x       0.020037 -0.169463 -0.149639  0.155902 -0.134854 -0.168243
     7 y      -0.120635  0.117204 -0.230096 -0.093454 -0.061382 -0.085805
     7 z      -0.251898 -0.181550 -0.008868 -0.205853  0.028970 -0.012826
     8 x      -0.073586 -0.169463 -0.149639  0.155902  0.103840 -0.122078
     8 y       0.172898  0.117204 -0.230096 -0.093454 -0.034794 -0.277674
     8 z      -0.167811 -0.181550 -0.008868 -0.205853  0.183559 -0.075055
     9 x      -0.176648 -0.169463 -0.149639  0.155902  0.405452 -0.044486
     9 y       0.502304  0.117204 -0.230096 -0.093454  0.164243 -0.008725
     9 z       0.108828 -0.181550 -0.008868 -0.205853  0.019103 -0.001146
    10 x      -0.016416 -0.169463 -0.149639  0.155902  0.149150  0.233602
    10 y       0.077452  0.117204 -0.230096 -0.093454  0.009226 -0.081988
    10 z       0.222807 -0.181550 -0.008868 -0.205853  0.130607 -0.034934
    11 x       0.077193 -0.169463 -0.149639  0.155902 -0.101246  0.171329
    11 y      -0.237940  0.117204 -0.230096 -0.093454 -0.174128 -0.416846
    11 z      -0.037342 -0.181550 -0.008868 -0.205853  0.351914 -0.137978
    12 x      -0.061533 -0.169463 -0.149639  0.155902  0.089819 -0.103611
    12 y       0.156779  0.117204 -0.230096 -0.093454  0.109612  0.175147
    12 z      -0.001264 -0.181550 -0.008868 -0.205853 -0.148040  0.056772


  Frequency      46.1862   73.5900   95.8773  112.5988  130.0550  139.6642
  IR Intensity    0.0016    0.0027    0.0048    0.0021    0.0189    0.0036
     in X         0.0001    0.0001    0.0003    0.0012    0.0013    0.0000
     in Y         0.0011    0.0004    0.0028    0.0007    0.0131    0.0002
     in Z         0.0004    0.0022    0.0017    0.0003    0.0045    0.0033
  Raman Intsty    0.0006    0.0038    0.1876    0.4169    0.1063    0.0011

     1 x      -0.008588 -0.020125  0.048254  0.068282 -0.064484 -0.100667
     1 y      -0.003400 -0.090573 -0.080187 -0.121700  0.006647  0.020331
     1 z      -0.029685  0.060617  0.078232  0.117034  0.017577 -0.020599
     2 x      -0.024978 -0.027742 -0.072602 -0.033942 -0.050157  0.108467
     2 y      -0.054400 -0.066611  0.068459 -0.105378  0.009939 -0.350037
     2 z      -0.007655 -0.078847 -0.102903 -0.143640  0.090666 -0.102941
     3 x       0.008361  0.017053 -0.031485 -0.125908  0.059315  0.009581
     3 y       0.002377  0.174117  0.102694  0.216825 -0.256525  0.277870
     3 z      -0.022126 -0.060977 -0.034728  0.026385 -0.022696  0.026875
     4 x       0.043386 -0.151291  0.015968  0.068363 -0.011050  0.119560
     4 y      -0.167893  0.175069  0.046227 -0.002584 -0.106239 -0.286244
     4 z       0.153537 -0.324874 -0.001997 -0.036526  0.186353 -0.044615
     5 x       0.010108 -0.197816 -0.034707  0.157995 -0.078074 -0.072328
     5 y       0.032720 -0.350229 -0.198699  0.054375 -0.039906  0.051643
     5 z      -0.412982 -0.133520  0.301656 -0.034961  0.176488 -0.053083
     6 x       0.053844  0.148764  0.131337 -0.246456  0.068354 -0.089365
     6 y       0.229456 -0.002566 -0.072010 -0.072425 -0.005195  0.062614
     6 z       0.649302  0.366169  0.137631  0.025728  0.060996  0.082783
     7 x      -0.088416  0.029629 -0.170595 -0.029768 -0.094261  0.092871
     7 y      -0.034635 -0.052316  0.062737 -0.116220  0.024650 -0.292449
     7 z      -0.307492  0.285154 -0.255425  0.293195 -0.190202 -0.016629
     8 x       0.117170 -0.174504 -0.028149 -0.157303 -0.036963 -0.046973
     8 y       0.185927 -0.222641  0.122286  0.118320 -0.348537  0.018807
     8 z      -0.073608  0.010978  0.069422  0.228080 -0.064573 -0.049547
     9 x       0.100215 -0.023206  0.399450  0.449005  0.381113 -0.103070
     9 y       0.128292  0.313388 -0.388196  0.055510  0.355109 -0.297202
     9 z      -0.005376 -0.002749 -0.230560 -0.114779  0.063063 -0.090753
    10 x      -0.193167  0.334975 -0.004496 -0.267790  0.064602  0.202696
    10 y      -0.058232  0.118736  0.148187  0.123885 -0.199149  0.066934
    10 z       0.114171 -0.126305 -0.076310  0.097320 -0.049300  0.141600
    11 x      -0.032363 -0.020745 -0.058845  0.054621 -0.046391 -0.188361
    11 y      -0.114597 -0.122187 -0.229201  0.039770  0.445404  0.517006
    11 z       0.078871 -0.022832  0.128252 -0.465264 -0.259918  0.072835
    12 x       0.019259  0.090915 -0.183430  0.080449 -0.181400  0.064257
    12 y      -0.134992  0.122568  0.400272 -0.188412  0.159783  0.220661
    12 z      -0.125560  0.042365 -0.001887  0.007472 -0.024848  0.072599


  Frequency     148.8050  180.3872  202.4315  218.6702  234.2633  247.0408
  IR Intensity    0.0286    0.0107    0.0116    0.0085    0.0175    0.0563
     in X         0.0002    0.0083    0.0019    0.0043    0.0102    0.0148
     in Y         0.0100    0.0013    0.0062    0.0040    0.0031    0.0193
     in Z         0.0184    0.0011    0.0035    0.0002    0.0042    0.0223
  Raman Intsty    0.0961    0.1086    0.0038    0.1808    0.0365    0.2702

     1 x       0.160398 -0.212109 -0.120342 -0.043843 -0.108507 -0.087234
     1 y      -0.082691  0.331288 -0.089500  0.094152 -0.045786  0.015683
     1 z       0.097269 -0.021037 -0.047387  0.248446 -0.235463  0.038765
     2 x       0.012714  0.189459 -0.072048 -0.144504 -0.225814 -0.015276
     2 y      -0.037459 -0.207157 -0.047805  0.055070 -0.018445  0.131599
     2 z      -0.224988 -0.111528 -0.010579 -0.061596  0.191072  0.141264
     3 x      -0.154608 -0.125142  0.246561  0.062334  0.146484 -0.199842
     3 y      -0.052200 -0.050615 -0.051582 -0.046681  0.178995  0.200507
     3 z      -0.120092  0.077409 -0.030722 -0.290528 -0.158696  0.114233
     4 x       0.136517  0.003957 -0.137813  0.045307 -0.261540 -0.096309
     4 y       0.073073  0.026995  0.031533 -0.121273 -0.074762 -0.038214
     4 z      -0.151836 -0.282517 -0.236041  0.378911  0.054850  0.165023
     5 x       0.304272 -0.391179 -0.067940 -0.156744  0.179858 -0.098283
     5 y       0.173803 -0.008174 -0.033535 -0.085031  0.378393  0.000394
     5 z       0.197335  0.208498  0.509209 -0.000944  0.260866  0.054617
     6 x      -0.085566  0.304898 -0.355090 -0.145700  0.455156 -0.056568
     6 y      -0.043130  0.183944  0.045581  0.011405 -0.029757 -0.006333
     6 z       0.046980 -0.105020  0.191337 -0.053332  0.111830 -0.018416
     7 x      -0.000269  0.158071 -0.098379  0.128480  0.021850 -0.009008
     7 y      -0.057221 -0.092375 -0.064435  0.006032 -0.079612  0.157381
     7 z      -0.009651  0.085417 -0.155299  0.288325  0.163229 -0.221466
     8 x      -0.135677  0.054621  0.380108  0.122945 -0.104934 -0.232620
     8 y      -0.080328  0.135980  0.254759  0.087174 -0.143051 -0.040595
     8 z      -0.046686 -0.148454  0.022307 -0.401182 -0.034985 -0.312585
     9 x       0.111198  0.273598 -0.093841  0.065313 -0.042110  0.195092
     9 y       0.257899  0.053951  0.080878  0.069797 -0.050097 -0.145132
     9 z      -0.078485  0.024375  0.066376 -0.255784 -0.182122 -0.045754
    10 x      -0.045312 -0.217926  0.098707 -0.080800 -0.089888  0.445930
    10 y      -0.010234 -0.124859  0.022201 -0.107307 -0.037973  0.169059
    10 z      -0.196361  0.154959 -0.093679 -0.115439  0.122218  0.014240
    11 x      -0.302687  0.070790 -0.040440 -0.128841 -0.120524  0.073220
    11 y       0.124223 -0.070802  0.031723 -0.124086 -0.081431  0.003149
    11 z       0.570832  0.102094 -0.152308  0.037492 -0.069286 -0.008055
    12 x      -0.004525 -0.080714  0.250137  0.300202  0.185966  0.138838
    12 y      -0.232705 -0.192265 -0.143619  0.141099 -0.018467 -0.514149
    12 z      -0.036826  0.026375 -0.046218  0.245499 -0.184595  0.021741


  Frequency     256.1100  263.9136  283.4668  303.3063  369.5455  383.6448
  IR Intensity    0.0039    0.0748    0.0301    0.0069    0.0010    0.0018
     in X         0.0002    0.0402    0.0064    0.0022    0.0005    0.0000
     in Y         0.0020    0.0125    0.0004    0.0040    0.0001    0.0008
     in Z         0.0017    0.0221    0.0233    0.0006    0.0004    0.0010
  Raman Intsty    0.6056    0.0091    0.0100    0.0062    0.0924    0.3860

     1 x       0.082405 -0.166552 -0.131932 -0.071071 -0.220281 -0.172086
     1 y      -0.179335 -0.150973  0.009194 -0.002521 -0.134972 -0.062472
     1 z      -0.200854  0.192766 -0.203844  0.093392  0.013819  0.180251
     2 x       0.107059 -0.106658  0.002125 -0.028075  0.169316  0.230453
     2 y       0.152102 -0.023498  0.158536  0.119536  0.106321  0.007560
     2 z       0.212747 -0.011567 -0.111026 -0.054745 -0.221358  0.138647
     3 x      -0.070705 -0.134821 -0.051456  0.076053  0.116763 -0.072505
     3 y       0.019919 -0.169930 -0.097092  0.014056  0.054155 -0.004037
     3 z       0.008689  0.145299  0.002518  0.045026  0.099973 -0.244757
     4 x      -0.192158 -0.224166  0.026960 -0.148787  0.162075 -0.050774
     4 y       0.002254 -0.032815 -0.489226 -0.023515 -0.301507 -0.120003
     4 z      -0.180675 -0.189686  0.154721 -0.199316 -0.130642 -0.120127
     5 x       0.151697  0.155762 -0.113302 -0.033093 -0.088678 -0.108262
     5 y      -0.061354  0.380827  0.068049  0.104769  0.129036  0.134535
     5 z       0.074264 -0.213643  0.105325 -0.052154  0.004395 -0.016159
     6 x      -0.374431  0.164493 -0.038976 -0.089311  0.003336 -0.015980
     6 y       0.050111 -0.284128  0.115785 -0.022134 -0.242291 -0.223833
     6 z       0.173922  0.010372  0.074250 -0.009570  0.093446  0.058949
     7 x       0.375340  0.079902  0.424028  0.371160 -0.308314 -0.086900
     7 y       0.056310 -0.083189  0.008975 -0.000469  0.384150  0.192759
     7 z       0.158153  0.020225  0.125370 -0.449117  0.212135 -0.078936
     8 x      -0.045072  0.199282 -0.066451 -0.135097  0.146408 -0.192141
     8 y      -0.018490  0.302977  0.073570 -0.339158 -0.257523  0.211968
     8 z      -0.383215 -0.190882  0.333847  0.109400 -0.227499  0.292952
     9 x       0.090119  0.139095  0.016182  0.034460 -0.000069 -0.080865
     9 y      -0.065427  0.018135  0.062158 -0.008517 -0.048820  0.098231
     9 z      -0.045417  0.152704  0.031852  0.060480  0.144952 -0.360990
    10 x      -0.089528  0.226252  0.107384 -0.306675 -0.198058  0.075390
    10 y      -0.154630  0.019733  0.220190  0.112838  0.241369 -0.364749
    10 z       0.204605 -0.136509 -0.376319  0.050009  0.031012 -0.011506
    11 x       0.194236 -0.083257  0.033757  0.002367  0.136059  0.373523
    11 y       0.027455 -0.031632 -0.114105 -0.075095  0.038479  0.107068
    11 z       0.091965 -0.098028  0.019193  0.002994  0.092077  0.115715
    12 x      -0.251720 -0.171137 -0.173581  0.332493  0.068832  0.102858
    12 y       0.172487  0.120493 -0.029572  0.095090  0.026715  0.034269
    12 z      -0.118128  0.256380 -0.096028  0.387567 -0.091697  0.031752


  Frequency     409.1743  456.7899  472.7900  522.7384  530.9382  566.9414
  IR Intensity    0.0318    0.0277    0.0455    0.0144    0.1086    0.0349
     in X         0.0005    0.0104    0.0247    0.0010    0.0018    0.0000
     in Y         0.0024    0.0018    0.0006    0.0015    0.0100    0.0193
     in Z         0.0289    0.0155    0.0203    0.0119    0.0967    0.0156
  Raman Intsty    1.4796    2.2366    0.8806    1.7684    0.1403    0.0655

     1 x      -0.099459  0.205476  0.141283 -0.034693  0.078157  0.006402
     1 y       0.052551  0.121071  0.123791 -0.052291  0.114697  0.009090
     1 z       0.507492  0.148468  0.282423 -0.160716  0.315046  0.052851
     2 x      -0.035423  0.011135  0.167139 -0.026947 -0.227672 -0.025936
     2 y       0.008394  0.034138 -0.119446  0.056128  0.232648 -0.127245
     2 z      -0.110530 -0.341330  0.048880  0.078033  0.441733  0.194521
     3 x       0.159990 -0.035650  0.032964 -0.018558  0.095728 -0.012891
     3 y       0.069685 -0.076204  0.044767 -0.138849 -0.078189  0.544157
     3 z      -0.062094 -0.041380 -0.007938 -0.124032 -0.040835  0.139065
     4 x       0.020571 -0.382735 -0.528968  0.091191  0.308475  0.038213
     4 y       0.175161 -0.348313 -0.118688  0.055676 -0.364257 -0.073773
     4 z       0.078915 -0.105610  0.103015 -0.007317 -0.452760 -0.067223
     5 x      -0.147699  0.197239  0.101657 -0.035670  0.048413  0.052765
     5 y       0.105391 -0.103239 -0.049110  0.026671 -0.074311 -0.040017
     5 z      -0.023394  0.016794 -0.007265 -0.008692 -0.033192 -0.023659
     6 x      -0.061990  0.019959  0.017515  0.005460  0.038225  0.008016
     6 y      -0.229299  0.245793  0.117149 -0.024600  0.162134  0.058429
     6 z       0.018196 -0.095532 -0.073586  0.021553 -0.098756 -0.030555
     7 x       0.348497 -0.058268 -0.171347 -0.045392 -0.099716  0.061854
     7 y      -0.015553  0.333841 -0.295263 -0.123092 -0.142679  0.229332
     7 z      -0.093150  0.036070 -0.011325  0.005502  0.002699 -0.029918
     8 x       0.141880  0.078698  0.075927  0.314524 -0.117728  0.363654
     8 y      -0.132503 -0.025027 -0.086712 -0.161759  0.045803 -0.200615
     8 z       0.057487  0.123810 -0.085558  0.067842 -0.081736  0.057332
     9 x      -0.077505 -0.027784 -0.027414 -0.076976 -0.010188 -0.015734
     9 y      -0.010532  0.009568  0.007573  0.139702  0.000582  0.005708
     9 z      -0.081249 -0.061790 -0.035259 -0.498424 -0.035344 -0.123191
    10 x       0.057543  0.197126 -0.182085  0.052746 -0.017870 -0.099005
    10 y       0.063480 -0.121338  0.274263  0.389803  0.097493 -0.309177
    10 z       0.197876  0.381363 -0.285642  0.280885  0.003358 -0.355140
    11 x      -0.098141 -0.200268  0.364027  0.091564 -0.069730 -0.128598
    11 y      -0.040837 -0.057426  0.102453  0.029319 -0.032936 -0.042354
    11 z      -0.043651 -0.070707  0.116603  0.030414 -0.053510 -0.054175
    12 x      -0.213075 -0.039607 -0.056121 -0.301880 -0.015786 -0.242527
    12 y      -0.070971 -0.028005 -0.010189 -0.170835 -0.012566 -0.135172
    12 z      -0.510073  0.054733 -0.106315  0.354566 -0.103904  0.166037


  Frequency     625.7424  681.4475  712.3069  772.4483  817.8307  881.7558
  IR Intensity    0.0547    0.0730    0.0295    0.0127    0.0064    0.0001
     in X         0.0019    0.0537    0.0288    0.0002    0.0020    0.0001
     in Y         0.0457    0.0054    0.0000    0.0124    0.0001    0.0000
     in Z         0.0070    0.0139    0.0007    0.0001    0.0043    0.0000
  Raman Intsty    0.0002    0.1466    0.0015    0.0070    0.0681    1.2433

     1 x      -0.077910  0.183112  0.642564 -0.150736  0.140856 -0.146520
     1 y       0.013048  0.060112  0.105773  0.683034  0.159822 -0.108590
     1 z       0.029322 -0.037651 -0.103910 -0.158941 -0.043645  0.042560
     2 x       0.120746  0.043947  0.142111  0.097100 -0.496758  0.509605
     2 y      -0.578885  0.047708 -0.054183  0.094667 -0.241082  0.162830
     2 z       0.289852 -0.112640  0.176772  0.034629  0.000888  0.204786
     3 x       0.132920  0.638036 -0.191663 -0.038020 -0.195611 -0.192438
     3 y      -0.222973  0.130346 -0.063800 -0.001500  0.086038  0.095866
     3 z      -0.056461 -0.188151  0.070106  0.046814 -0.482037 -0.569612
     4 x      -0.010230 -0.060611 -0.084832 -0.030291  0.052206 -0.032901
     4 y       0.051712 -0.032226 -0.091415 -0.063000 -0.038000  0.023563
     4 z       0.005741  0.007191 -0.049829 -0.018297 -0.053968  0.028902
     5 x       0.147102 -0.136025 -0.454327  0.317967 -0.018713  0.025160
     5 y      -0.088553  0.085997  0.267591 -0.224863  0.004027 -0.010142
     5 z      -0.004693 -0.003718  0.012715 -0.000971  0.005406 -0.001120
     6 x      -0.007236 -0.035535 -0.071525 -0.095578 -0.019199  0.013200
     6 y       0.022107 -0.135145 -0.259769 -0.492666 -0.112607  0.064735
     6 z      -0.008669  0.047525  0.093602  0.175294  0.037766 -0.020367
     7 x       0.138212 -0.056209 -0.033808 -0.013244  0.074633 -0.056119
     7 y       0.470349 -0.032858  0.042790 -0.087046  0.145617 -0.097430
     7 z      -0.031412  0.005830  0.005430  0.000672 -0.009687 -0.003922
     8 x      -0.177896 -0.322219  0.070051  0.009478  0.144982  0.112740
     8 y       0.121309  0.150034 -0.031769 -0.013560 -0.049298 -0.054866
     8 z      -0.057482 -0.079898  0.004714  0.011850  0.063543  0.069266
     9 x      -0.018749  0.006473 -0.006916 -0.002206  0.073852  0.064037
     9 y       0.036041 -0.040248  0.015993  0.007394 -0.088913 -0.080078
     9 z      -0.071602  0.151153 -0.058858 -0.034282  0.359015  0.320233
    10 x      -0.089314 -0.022862 -0.017775  0.000079  0.038485 -0.003943
    10 y       0.332539 -0.061780  0.059823 -0.010849  0.057538  0.076680
    10 z      -0.072127 -0.009520 -0.034319 -0.009793  0.069981  0.041225
    11 x      -0.169057 -0.028422 -0.207498 -0.100088  0.340890 -0.290124
    11 y      -0.020595 -0.009580 -0.049801 -0.035702  0.097020 -0.079385
    11 z      -0.066348 -0.000793 -0.077531 -0.036078  0.114313 -0.098613
    12 x      -0.022270 -0.375470  0.099976  0.023103 -0.029933 -0.035401
    12 y       0.015065 -0.208001  0.061108 -0.004658 -0.021079 -0.021949
    12 z      -0.006468  0.285531 -0.066290  0.003954  0.038997  0.048420




--------------------------------------------------------------------------------
  Vibrational properties (for cluster):  Temperature  =       0.000 K
--------------------------------------------------------------------------------
  Zero point energy            =        0.690625 eV
--------------------------------------------------------------------------------

  Phonon density of states : 

--------------------------------------------------------------------------------
 Frequency (cm-1) Density of States                                             
--------------------------------------------------------------------------------
    0.00000 |************************************************************  0.061
   13.77744 |******************************                                0.030
   27.55487 |                                                              0.000
   41.33231 |******************************                                0.030
   55.10974 |                                                              0.000
   68.88718 |******************************                                0.030
   82.66462 |******************************                                0.030
   96.44205 |                                                              0.000
  110.21949 |******************************                                0.030
  123.99692 |******************************                                0.030
  137.77436 |************************************************************  0.061
  151.55180 |                                                              0.000
  165.32923 |                                                              0.000
  179.10667 |******************************                                0.030
  192.88410 |******************************                                0.030
  206.66154 |******************************                                0.030
  220.43898 |                                                              0.000
  234.21641 |************************************************************  0.061
  247.99385 |******************************                                0.030
  261.77128 |******************************                                0.030
  275.54872 |******************************                                0.030
  289.32616 |                                                              0.000
  303.10359 |******************************                                0.030
  316.88103 |                                                              0.000
  330.65846 |                                                              0.000
  344.43590 |                                                              0.000
  358.21334 |******************************                                0.030
  371.99077 |******************************                                0.030
  385.76821 |                                                              0.000
  399.54564 |******************************                                0.030
  413.32308 |                                                              0.000
  427.10052 |                                                              0.000
  440.87795 |                                                              0.000
  454.65539 |******************************                                0.030
  468.43282 |******************************                                0.030
  482.21026 |                                                              0.000
  495.98770 |                                                              0.000
  509.76513 |******************************                                0.030
  523.54257 |******************************                                0.030
  537.32000 |                                                              0.000
  551.09744 |                                                              0.000
  564.87488 |******************************                                0.030
  578.65231 |                                                              0.000
  592.42975 |                                                              0.000
  606.20718 |                                                              0.000
  619.98462 |******************************                                0.030
  633.76206 |                                                              0.000
  647.53949 |                                                              0.000
  661.31693 |                                                              0.000
  675.09436 |******************************                                0.030
  688.87180 |                                                              0.000
  702.64924 |******************************                                0.030
  716.42667 |                                                              0.000
  730.20411 |                                                              0.000
  743.98154 |                                                              0.000
  757.75898 |                                                              0.000
  771.53642 |******************************                                0.030
  785.31385 |                                                              0.000
  799.09129 |                                                              0.000
  812.86872 |******************************                                0.030
  826.64616 |                                                              0.000
  840.42360 |                                                              0.000
  854.20103 |                                                              0.000
  867.97847 |******************************                                0.030
--------------------------------------------------------------------------------



  Time to end of optimisation =       0.0443 seconds


  Peak dynamic memory used =       0.65 MB 


  Timing analysis for GULP :

--------------------------------------------------------------------------------
  Task / Subroutine                                          Time (Seconds)
--------------------------------------------------------------------------------
  Calculation of real space energy and derivatives                0.0031
  Calculation of phonons                                          0.0015
  Calculation and manipulation of Hessian matrix                  0.0020
--------------------------------------------------------------------------------
  Total CPU time                                                  0.0443
--------------------------------------------------------------------------------


  Job Finished at 14:39.49 25th May        2022                               

