********************************************************************************
*                       GENERAL UTILITY LATTICE PROGRAM                        *
*                                 Julian Gale                                  *
*                       Curtin Institute for Computation                       *
*                           Department of Chemistry                            *
*                    Curtin University, Western Australia                      *
********************************************************************************
* Version = 5.1.1 * Last modified =  24th November 2018                        *
********************************************************************************
*  optimise     - perform optimisation run                                     *
*  conp         - constant pressure calculation                                *
*  shell        - only shells and radii to be optimised                        *
*  phonon       - calculate phonons for final geometry                         *
*  eigenvectors - output phonon eigenvectors                                   *
********************************************************************************

  Job Started  at 14:40.21 25th May        2022                               

  Number of CPUs =     1

  Host name      = login03                                 


  Total number of configurations input =      1

********************************************************************************
*  Input for Configuration =   1                                               *
********************************************************************************

  Formula = Al3F9                                                       

  Number of irreducible atoms/shells =      21


  Total number atoms/shells =      21

  Dimensionality = 0               :  Cluster


  Charge on cluster =  -0.000000


  Initial cluster dipoles : x =     -0.000000 e.Angs
                            y =     -0.000000 e.Angs
                            z =     -0.000000 e.Angs

  Temperature of configuration =  0.000     K 

  Symmetry number =      1

  Cartesian coordinates of cluster :

--------------------------------------------------------------------------------
   No.  Atomic       x           y          z         Charge      Occupancy
        Label      (Angs)      (Angs)     (Angs)        (e)         (Frac)  
--------------------------------------------------------------------------------
      1 Al    c      0.2731     -2.3373     -1.8293     3.00000    1.000000    
      2 Al    c      2.0433     -0.5390     -0.8032     3.00000    1.000000    
      3 Al    c     -0.3414      0.3164     -1.8041     3.00000    1.000000    
      4 F     c      3.6351     -0.1778     -0.0267     0.59000    1.000000    
      5 F     c     -0.1696     -4.0429     -2.2321     0.59000    1.000000    
      6 F     c      2.1660     -1.9288     -2.1950     0.59000    1.000000    
      7 F     c      1.5368      0.7882     -2.1691     0.59000    1.000000    
      8 F     c     -1.4904      1.6607     -2.1778     0.59000    1.000000    
      9 F     c     -1.2437     -1.2972     -1.1216     0.59000    1.000000    
     10 F     c     -0.2756     -1.0530     -3.2197     0.59000    1.000000    
     11 F     c      0.5687      0.5440     -0.0710     0.59000    1.000000    
     12 F     c      1.1979     -2.1730     -0.0969     0.59000    1.000000    
     13 F     s      3.6351 *   -0.1778 *   -0.0267 *  -1.59000    1.000000    
     14 F     s     -0.1696 *   -4.0429 *   -2.2321 *  -1.59000    1.000000    
     15 F     s      2.1660 *   -1.9288 *   -2.1950 *  -1.59000    1.000000    
     16 F     s      1.5368 *    0.7882 *   -2.1691 *  -1.59000    1.000000    
     17 F     s     -1.4904 *    1.6607 *   -2.1778 *  -1.59000    1.000000    
     18 F     s     -1.2437 *   -1.2972 *   -1.1216 *  -1.59000    1.000000    
     19 F     s     -0.2756 *   -1.0530 *   -3.2197 *  -1.59000    1.000000    
     20 F     s      0.5687 *    0.5440 *   -0.0710 *  -1.59000    1.000000    
     21 F     s      1.1979 *   -2.1730 *   -0.0969 *  -1.59000    1.000000    
--------------------------------------------------------------------------------


  Brillouin zone sampling points :

--------------------------------------------------------------------------------
  Point number          x          y          z            Weight
--------------------------------------------------------------------------------
        1           0.000000   0.000000   0.000000     1.00000000
--------------------------------------------------------------------------------


********************************************************************************
*  General input information                                                   *
********************************************************************************

  Species output for all configurations : 

--------------------------------------------------------------------------------
  Species    Type    Atomic    Atomic    Charge       Radii (Angs)     Library
                     Number     Mass       (e)     Cova   Ionic  VDW   Symbol
--------------------------------------------------------------------------------
    Al       Core       13      26.98   3.000000   1.350  0.000  2.050          
    F        Core        9      19.00   0.590000   0.710  0.000  1.300          
    F        Shell       9       0.00  -1.590000   0.710  0.000  1.300          
--------------------------------------------------------------------------------


  Accuracy factor for short range sums = 12.000

  Time limit = Infinity

  Maximum range for interatomic potentials =    100000.000000 Angstroms

  General interatomic potentials :

--------------------------------------------------------------------------------
Atom  Types   Potential      Parameter       Value         Units   Cutoffs(Ang)
  1     2                                                            Min /  Max 
--------------------------------------------------------------------------------
Al   c F    s Buckingham    Buckingham A     3760.0008    eV        0.000 10.000
                            Buckingham rho  0.22200000    Ang       
                            Buckingham C     0.0000000    eV*Ang^6  
--------------------------------------------------------------------------------
F    s F    s Buck 4 range  Buck4 A          1127.7000    eV        0.000 12.000
                            Buck4 rho       0.27530000    Ang       
                            Buck4 C          15.830000    eV*Ang^6  
                            Buck4 minimum    2.7900000    Ang       
--------------------------------------------------------------------------------
F    c F    s Spring (c-s)  Spring k 2       20.770000    eV*Ang^-2 0.000  0.800
                            Spring k 4       0.0000000    eV*Ang^-4 
--------------------------------------------------------------------------------

********************************************************************************
*  Output for configuration   1                                                *
********************************************************************************


  Components of energy : 

--------------------------------------------------------------------------------
  Interatomic potentials     =           9.79479963 eV    
  Monopole - monopole (real) =        -175.18941681 eV    
--------------------------------------------------------------------------------
  Total lattice energy       =        -165.39461717 eV    
--------------------------------------------------------------------------------
  Total lattice energy       =          -15958.0523 kJ/mol
--------------------------------------------------------------------------------


  Number of variables =       27

  Maximum number of calculations  =          2000
  Maximum Hessian update interval =            10
  Maximum step size               =   1.000000000
  Maximum parameter tolerance     =   0.000001000
  Maximum function  tolerance     =   0.000010000
  Maximum gradient  tolerance     =   0.000000010
  Maximum gradient  component     =   0.010000000

  Symmetry not applied to optimisation

  Newton-Raphson optimiser to be used

  BFGS hessian update to be used

  Lower half triangular hessian to be used

  Minimiser to switch to RFO
  When gradient norm is less than     0.010000

  Shell only optimisation

  Start of cluster optimisation :

  Cycle:      0 Energy:      -165.394617  Gnorm:      1.568806  CPU:    0.005
  ** Hessian calculated **
  Cycle:      1 Energy:      -184.976536  Gnorm:      0.231326  CPU:    0.007
  ** Hessian calculated **
  Cycle:      2 Energy:      -185.281803  Gnorm:      0.013544  CPU:    0.010
  Cycle:      3 Energy:      -185.282711  Gnorm:      0.000818  CPU:    0.012
  ** Hessian has required structure
  Cycle:      4 Energy:      -185.282714  Gnorm:      0.000073  CPU:    0.014
  ** Hessian has required structure
  Cycle:      5 Energy:      -185.282714  Gnorm:      0.000001  CPU:    0.015
  ** Hessian has required structure

  XYZ File written as 006/3/sp_mod_40/sp_mod_40_eig.xyz



  **** Optimisation achieved ****


  Final energy =    -185.28271414 eV
  Final Gnorm  =       0.00000000

  Components of energy : 

--------------------------------------------------------------------------------
  Interatomic potentials     =          36.70262166 eV    
  Monopole - monopole (real) =        -221.98533579 eV    
--------------------------------------------------------------------------------
  Total lattice energy       =        -185.28271414 eV    
--------------------------------------------------------------------------------
  Total lattice energy       =          -17876.9496 kJ/mol
--------------------------------------------------------------------------------

  Final cartesian coordinates of atoms :

--------------------------------------------------------------------------------
   No.  Atomic        x           y          z          Radius
        Label       (Angs)      (Angs)     (Angs)       (Angs) 
--------------------------------------------------------------------------------
     1  Al    c     0.273128   -2.337291   -1.829325    0.000000
     2  Al    c     2.043334   -0.538988   -0.803238    0.000000
     3  Al    c    -0.341413    0.316401   -1.804072    0.000000
     4  F     c     3.635108   -0.177755   -0.026719    0.000000
     5  F     c    -0.169611   -4.042862   -2.232097    0.000000
     6  F     c     2.166014   -1.928802   -2.194983    0.000000
     7  F     c     1.536817    0.788180   -2.169128    0.000000
     8  F     c    -1.490448    1.660740   -2.177820    0.000000
     9  F     c    -1.243725   -1.297174   -1.121579    0.000000
    10  F     c    -0.275609   -1.053012   -3.219687    0.000000
    11  F     c     0.568701    0.544018   -0.071019    0.000000
    12  F     c     1.197899   -2.172964   -0.096875    0.000000
    13  F     s     3.384702   -0.234582   -0.148875    0.000000
    14  F     s    -0.099963   -3.774554   -2.168736    0.000000
    15  F     s     1.956818   -1.794496   -2.069461    0.000000
    16  F     s     1.408474    0.573349   -2.046928    0.000000
    17  F     s    -1.309691    1.449258   -2.119025    0.000000
    18  F     s    -0.983846   -1.236236   -1.200994    0.000000
    19  F     s    -0.171052   -1.031247   -2.962488    0.000000
    20  F     s     0.595680    0.368359   -0.285434    0.000000
    21  F     s     1.144024   -1.999485   -0.307967    0.000000
--------------------------------------------------------------------------------


  Final Cartesian derivatives :

--------------------------------------------------------------------------------
   No.  Atomic          x             y             z           Radius
        Label       (eV/Angs)     (eV/Angs)    (eV/Angs)      (eV/Angs)
--------------------------------------------------------------------------------
      1 Al    c       0.000000      0.000000      0.000000      0.000000
      2 Al    c       0.000000      0.000000      0.000000      0.000000
      3 Al    c       0.000000      0.000000      0.000000      0.000000
      4 F     c       0.000000      0.000000      0.000000      0.000000
      5 F     c       0.000000      0.000000      0.000000      0.000000
      6 F     c       0.000000      0.000000      0.000000      0.000000
      7 F     c       0.000000      0.000000      0.000000      0.000000
      8 F     c       0.000000      0.000000      0.000000      0.000000
      9 F     c       0.000000      0.000000      0.000000      0.000000
     10 F     c       0.000000      0.000000      0.000000      0.000000
     11 F     c       0.000000      0.000000      0.000000      0.000000
     12 F     c       0.000000      0.000000      0.000000      0.000000
     13 F     s      -0.000000     -0.000000     -0.000000      0.000000
     14 F     s       0.000000      0.000000      0.000000      0.000000
     15 F     s      -0.000000     -0.000000      0.000000      0.000000
     16 F     s      -0.000000     -0.000000      0.000000      0.000000
     17 F     s       0.000000     -0.000000      0.000000      0.000000
     18 F     s       0.000000     -0.000000     -0.000000      0.000000
     19 F     s       0.000000     -0.000000      0.000000      0.000000
     20 F     s      -0.000000     -0.000000     -0.000000      0.000000
     21 F     s      -0.000000      0.000000     -0.000000      0.000000
--------------------------------------------------------------------------------
  Maximum abs         0.000000      0.000000      0.000000      0.000000
--------------------------------------------------------------------------------


  Born effective charge tensors : 

-------------------------------------------------------------------------------
  Atom             x           y             z
-------------------------------------------------------------------------------
    1 Al    x       1.3690     -0.1636      0.0472
            y      -0.1636      0.8524     -0.1189
            z       0.0472     -0.1189      1.2334
-------------------------------------------------------------------------------
    2 Al    x       0.8928     -0.1269     -0.1683
            y      -0.1269      1.4185     -0.0361
            z      -0.1683     -0.0361      1.1436
-------------------------------------------------------------------------------
    3 Al    x       1.1400      0.3050     -0.0040
            y       0.3050      1.0769      0.1234
            z      -0.0040      0.1234      1.2380
-------------------------------------------------------------------------------
    4 F     x      -0.0577      0.1128      0.2307
            y       0.1128     -0.5286      0.0521
            z       0.2307      0.0521     -0.4167
-------------------------------------------------------------------------------
    5 F     x      -0.5118      0.1478      0.0252
            y       0.1478      0.0111      0.1311
            z       0.0252      0.1311     -0.5023
-------------------------------------------------------------------------------
    6 F     x      -0.4398     -0.0063     -0.0406
            y      -0.0266     -0.4295     -0.0246
            z      -0.0050     -0.0596     -0.3566
-------------------------------------------------------------------------------
    7 F     x      -0.4511     -0.0031     -0.0470
            y       0.0168     -0.4195      0.0030
            z      -0.0300      0.0502     -0.3553
-------------------------------------------------------------------------------
    8 F     x      -0.2934     -0.2989      0.0740
            y      -0.2989     -0.2029     -0.1000
            z       0.0740     -0.1000     -0.5067
-------------------------------------------------------------------------------
    9 F     x      -0.4231      0.0111     -0.0300
            y       0.0106     -0.4672     -0.0082
            z       0.0226      0.0039     -0.3356
-------------------------------------------------------------------------------
   10 F     x      -0.3785      0.0213     -0.0149
            y       0.0218     -0.4646     -0.0043
            z      -0.0674     -0.0164     -0.3828
-------------------------------------------------------------------------------
   11 F     x      -0.4387      0.0422     -0.0378
            y       0.0224     -0.4074     -0.0002
            z      -0.0548     -0.0473     -0.3797
-------------------------------------------------------------------------------
   12 F     x      -0.4076     -0.0414     -0.0347
            y      -0.0211     -0.4390     -0.0175
            z      -0.0703      0.0176     -0.3793
-------------------------------------------------------------------------------




  Moment of inertia tensor (10^-46 x kgm^2): 

-------------------------------------------------------------------------------
                x           y           z           Principal axis system
-------------------------------------------------------------------------------
       x        132.89        3.05      -26.22          120.791127
       y          3.05      121.56       -6.61          120.791129
       z        -26.22       -6.61      177.61          190.480244
-------------------------------------------------------------------------------
  Centre of mass (Ang) =     0.658350    -0.853293    -1.478879
-------------------------------------------------------------------------------


  Vibrational Frequency Calculation : 

--------------------------------------------------------------------------------

  Frequencies (cm-1) and Eigenvectors : 

  Frequency      -0.0000   -0.0000    0.0000   22.6183   22.6185   47.1481
  IR Intensity    0.0000    0.0000    0.0000    0.0000    0.0000    0.0000
     in X         0.0000    0.0000    0.0000    0.0000    0.0000    0.0000
     in Y         0.0000    0.0000    0.0000    0.0000    0.0000    0.0000
     in Z         0.0000    0.0000    0.0000    0.0000    0.0000    0.0000
  Raman Intsty    0.0000    0.0000    0.0000    0.0000    0.0000    0.0000

     1 x      -0.028783  0.265715 -0.188828  0.083867 -0.008216 -0.191547
     1 y       0.013438 -0.188434 -0.267209  0.021151 -0.002072  0.068706
     1 z      -0.325699 -0.031257  0.005662 -0.181756  0.017806 -0.080389
     2 x      -0.028783  0.265715 -0.188828 -0.034818  0.076739  0.049361
     2 y       0.013438 -0.188434 -0.267209 -0.008781  0.019354 -0.213149
     2 z      -0.325699 -0.031257  0.005662  0.075457 -0.166310 -0.002028
     3 x      -0.028783  0.265715 -0.188828 -0.049049 -0.068523  0.142186
     3 y       0.013438 -0.188434 -0.267209 -0.012370 -0.017282  0.144443
     3 z      -0.325699 -0.031257  0.005662  0.106300  0.148503  0.082417
     4 x      -0.024154  0.222983 -0.158461 -0.098320  0.216700  0.105342
     4 y       0.011277 -0.158131 -0.224237 -0.024797  0.054652 -0.454886
     4 z      -0.273321 -0.026230  0.004752  0.213081 -0.469633 -0.004329
     5 x      -0.024154  0.222983 -0.158461  0.236828 -0.023202 -0.408786
     5 y       0.011277 -0.158131 -0.224237  0.059729 -0.005852  0.146628
     5 z      -0.273321 -0.026230  0.004752 -0.513256  0.050283 -0.171560
     6 x      -0.024154  0.222983 -0.158461  0.058567 -0.129818 -0.119316
     6 y       0.011277 -0.158131 -0.224237  0.226127  0.100909 -0.121210
     6 z      -0.273321 -0.026230  0.004752 -0.088137 -0.245805 -0.069160
     7 x      -0.024154  0.222983 -0.158461 -0.044716 -0.162363  0.160737
     7 y       0.011277 -0.158131 -0.224237  0.223527  0.037911 -0.057655
     7 z      -0.273321 -0.026230  0.004752  0.247285 -0.094206  0.067458
     8 x      -0.024154  0.222983 -0.158461 -0.138507 -0.193498  0.303443
     8 y       0.011277 -0.158131 -0.224237 -0.034932 -0.048801  0.308259
     8 z      -0.273321 -0.026230  0.004752  0.300174  0.419350  0.175888
     9 x      -0.024154  0.222983 -0.158461 -0.016525  0.139921 -0.041421
     9 y       0.011277 -0.158131 -0.224237 -0.179798 -0.050660  0.178865
     9 z      -0.273321 -0.026230  0.004752 -0.128977  0.280013  0.001702
    10 x      -0.024154  0.222983 -0.158461  0.092092 -0.306473 -0.041421
    10 y       0.011277 -0.158131 -0.224237  0.198856  0.008655  0.178865
    10 z      -0.273321 -0.026230  0.004752 -0.034793  0.080939  0.001702
    11 x      -0.024154  0.222983 -0.158461 -0.137306  0.180196  0.160737
    11 y       0.011277 -0.158131 -0.224237 -0.269433 -0.033414 -0.057655
    11 z      -0.273321 -0.026230  0.004752  0.147194  0.055559  0.067458
    12 x      -0.024154  0.222983 -0.158461  0.047887  0.278537 -0.119316
    12 y       0.011277 -0.158131 -0.224237 -0.199279 -0.063402 -0.121210
    12 z      -0.273321 -0.026230  0.004752 -0.142571 -0.076501 -0.069161


  Frequency      97.4492   97.4492  128.3858  128.3859  131.1765  136.2387
  IR Intensity    0.0000    0.0000    0.0172    0.0172    0.0386    0.0000
     in X         0.0000    0.0000    0.0138    0.0004    0.0067    0.0000
     in Y         0.0000    0.0000    0.0008    0.0162    0.0004    0.0000
     in Z         0.0000    0.0000    0.0026    0.0006    0.0315    0.0000
  Raman Intsty    0.0000    0.0000    0.0000    0.0000    0.0000    0.0000

     1 x       0.176569 -0.097729  0.066875 -0.017630 -0.055219  0.149251
     1 y       0.044531 -0.024647 -0.014276 -0.094187 -0.013927  0.037642
     1 z      -0.382661  0.211799  0.029196 -0.019096  0.119672 -0.323458
     2 x      -0.172920 -0.104048  0.085390 -0.020513 -0.055214 -0.061758
     2 y      -0.043611 -0.026241 -0.012106 -0.073802 -0.013925 -0.015576
     2 z       0.374754  0.225494  0.037992 -0.018054  0.119661  0.133842
     3 x      -0.003648  0.201777  0.078629 -0.003036 -0.055215 -0.087496
     3 y      -0.000920  0.050889 -0.030845 -0.082116 -0.013926 -0.022067
     3 z       0.007907 -0.437293  0.032692 -0.010957  0.119663  0.189623
     4 x      -0.063106 -0.037972 -0.001872 -0.188322  0.210180  0.093046
     4 y      -0.015916 -0.009577  0.323847  0.669429  0.053008  0.023467
     4 z       0.136764  0.082293  0.036823 -0.008993 -0.455503 -0.201650
     5 x       0.064438 -0.035665 -0.662961 -0.085386  0.210187 -0.224856
     5 y       0.016251 -0.008995  0.246397 -0.058368  0.053010 -0.056709
     5 z      -0.139649  0.077294 -0.277232 -0.046191 -0.455520  0.487310
     6 x       0.029724 -0.296384  0.101241  0.005444 -0.056292  0.084878
     6 y       0.018827  0.327656 -0.062231 -0.112300 -0.036814  0.126275
     6 z       0.015227 -0.061124  0.063485  0.006583  0.161630 -0.146753
     7 x      -0.091778  0.088308  0.075442 -0.018980 -0.066064 -0.108266
     7 y      -0.376033  0.194676 -0.012629 -0.142560  0.005395  0.083878
     7 z      -0.053290  0.045238  0.036178 -0.054713  0.162023  0.302027
     8 x      -0.001332  0.073637 -0.243271  0.435666  0.210181  0.131823
     8 y      -0.000336  0.018571 -0.345168  0.372604  0.053008  0.033246
     8 z       0.002886 -0.159588 -0.152419  0.244387 -0.455506 -0.285688
     9 x       0.352088  0.201986  0.119595 -0.033709 -0.050164  0.030644
     9 y       0.060389  0.078957 -0.008677 -0.085634 -0.013206 -0.087465
     9 z       0.137349  0.083051  0.081024 -0.037745  0.167208 -0.137636
    10 x      -0.327904 -0.187435  0.139797 -0.042908 -0.094225  0.075901
    10 y      -0.054290 -0.075287 -0.003582 -0.087954 -0.023210  0.114336
    10 z      -0.189761 -0.114587  0.037240 -0.017809  0.145712 -0.093269
    11 x       0.067084 -0.074640  0.077577 -0.041075 -0.078315 -0.149239
    11 y       0.369805 -0.191229 -0.012090 -0.148133 -0.041808 -0.148822
    11 z       0.106808 -0.074859  0.031552 -0.006827  0.150877  0.256041
    12 x      -0.029213  0.268164  0.119309  0.018341 -0.088095  0.066073
    12 y      -0.018698 -0.334773 -0.057674 -0.109048  0.000399 -0.088205
    12 z      -0.016334  0.122282  0.024328 -0.021367  0.151286 -0.180390


  Frequency     136.2388  163.8081  176.2285  255.1986  255.1986  279.4136
  IR Intensity    0.0000    0.0000    0.0000    0.0226    0.0226    0.0164
     in X         0.0000    0.0000    0.0000    0.0160    0.0026    0.0028
     in Y         0.0000    0.0000    0.0000    0.0039    0.0184    0.0002
     in Z         0.0000    0.0000    0.0000    0.0026    0.0016    0.0133
  Raman Intsty    0.0000    0.0000    0.0000    0.0000    0.0000    0.0000

     1 x       0.014860 -0.000000 -0.281771 -0.046853 -0.071960  0.064073
     1 y       0.003748 -0.000000  0.101069 -0.019167 -0.295286  0.016159
     1 z      -0.032204  0.000001 -0.118254 -0.023850 -0.067567 -0.138859
     2 x      -0.136687  0.000000  0.072611  0.216168 -0.171669  0.064073
     2 y      -0.034473  0.000000 -0.313548  0.075846 -0.002612  0.016159
     2 z       0.296229 -0.000001 -0.002984  0.108571 -0.079516 -0.138860
     3 x       0.121826 -0.000001  0.209159  0.171008  0.105969  0.064073
     3 y       0.030725 -0.000000  0.212479 -0.225124 -0.066665  0.016159
     3 z      -0.264022  0.000000  0.121238  0.052709  0.041138 -0.138860
     4 x       0.205931 -0.000000 -0.076513  0.224568 -0.186829 -0.018866
     4 y       0.051936 -0.000000  0.330399  0.097220  0.020361 -0.004758
     4 z      -0.446294  0.000000  0.003144  0.114935 -0.083838  0.040887
     5 x      -0.022387  0.000000  0.296911 -0.075181 -0.073196 -0.018866
     5 y      -0.005646  0.000000 -0.106500 -0.011061 -0.313183 -0.004758
     5 z       0.048517 -0.000001  0.124608 -0.035978 -0.070220  0.040887
     6 x      -0.004016 -0.265299 -0.155633 -0.169026 -0.178234  0.216684
     6 y      -0.059842 -0.269510 -0.158104  0.347066  0.045668 -0.294392
     6 z       0.270518 -0.153778 -0.090212 -0.160210 -0.130512  0.142122
     7 x       0.079385  0.357399  0.209663  0.134284  0.041544  0.065824
     7 y      -0.023990 -0.128196 -0.075204 -0.001624  0.400544  0.357051
     7 z       0.067912  0.149994  0.087992  0.076670  0.198755  0.148321
     8 x      -0.183540  0.000001 -0.220399  0.173102  0.129578 -0.018866
     8 y      -0.046289  0.000000 -0.223898 -0.245778 -0.052637 -0.004758
     8 z       0.397769 -0.000001 -0.127753  0.051272  0.053665  0.040887
     9 x       0.011673  0.092100 -0.054029 -0.248227  0.224198  0.311251
     9 y       0.048895 -0.397706  0.233307 -0.144830 -0.071335  0.069908
     9 z      -0.302329 -0.003784  0.002220 -0.239102  0.174536  0.228152
    10 x       0.224149 -0.092100 -0.054029 -0.329273  0.283933 -0.368736
    10 y       0.010580  0.397705  0.233308 -0.165271 -0.056270 -0.084406
    10 z      -0.208746  0.003785  0.002220 -0.063458  0.045077 -0.103568
    11 x      -0.105024 -0.357399  0.209662  0.145494  0.141600 -0.123309
    11 y       0.017524  0.128196 -0.075204  0.001203  0.425779 -0.371549
    11 z      -0.012347 -0.149994  0.087991  0.052377 -0.018087 -0.023738
    12 x      -0.206170  0.265299 -0.155633 -0.261282 -0.218554 -0.274170
    12 y       0.006832  0.269510 -0.158103  0.323799  0.035499  0.279894
    12 z       0.184998  0.153779 -0.090212  0.039726 -0.043129 -0.017539


  Frequency     304.4482  316.9392  316.9392  359.7320  359.7320  405.1803
  IR Intensity    0.0000    0.0000    0.0000    0.0032    0.0032    0.0000
     in X         0.0000    0.0000    0.0000    0.0023    0.0003    0.0000
     in Y         0.0000    0.0000    0.0000    0.0005    0.0027    0.0000
     in Z         0.0000    0.0000    0.0000    0.0004    0.0002    0.0000
  Raman Intsty    0.2943    0.0000    0.0000    0.0000    0.0000    1.7534

     1 x       0.008648 -0.003611 -0.001114 -0.285653 -0.028220  0.064310
     1 y       0.033314 -0.000911 -0.000281  0.086416 -0.199540  0.247745
     1 z       0.007867  0.007826  0.002415 -0.121750 -0.036242  0.058505
     2 x      -0.031091  0.002771 -0.002570  0.107046 -0.161487 -0.231215
     2 y      -0.007056  0.000699 -0.000648  0.211226  0.236605 -0.052471
     2 z      -0.015167 -0.006005  0.005570  0.073974 -0.046980 -0.112794
     3 x       0.022444  0.000841  0.003684  0.026109  0.245234  0.166904
     3 y      -0.026258  0.000212  0.000929 -0.228892  0.126621 -0.195273
     3 z       0.007300 -0.001821 -0.007985 -0.014590  0.127892  0.054289
     4 x      -0.036823 -0.037415  0.034702  0.214944 -0.135210 -0.404396
     4 y      -0.008357 -0.009436  0.008752  0.023714 -0.067323 -0.091772
     4 z      -0.017963  0.081086 -0.075207  0.101940 -0.070224 -0.197277
     5 x       0.010242  0.048760  0.015051  0.032405 -0.073264  0.112479
     5 y       0.039456  0.012298  0.003796 -0.034301 -0.270057  0.433306
     5 z       0.009317 -0.105674 -0.032619  0.010961 -0.065233  0.102325
     6 x      -0.135061 -0.290133  0.185707 -0.186944 -0.000448  0.120869
     6 y       0.281436 -0.314833  0.100537 -0.097339  0.043946 -0.070745
     6 z      -0.260234 -0.238820 -0.202153  0.350991  0.220060 -0.084535
     7 x       0.001303 -0.239600  0.383068 -0.094312  0.187820  0.077116
     7 y      -0.307405  0.016977 -0.158691  0.040273  0.016836  0.118186
     7 z      -0.265837  0.184983  0.248903 -0.076793 -0.407433 -0.082738
     8 x       0.026581 -0.011346 -0.049753  0.177322  0.053846  0.291917
     8 y      -0.031099 -0.002861 -0.012548 -0.180866 -0.118447 -0.341534
     8 z       0.008646  0.024589  0.107826  0.060773  0.011062  0.094952
     9 x       0.220540  0.009200 -0.162021 -0.149188  0.068225 -0.148295
     9 y       0.047856  0.352053  0.336256  0.033907  0.122912 -0.034909
     9 z       0.337996 -0.180043  0.173298  0.345724 -0.235121  0.059585
    10 x       0.394104  0.160295  0.004814  0.159781 -0.143142 -0.048915
    10 y       0.091629 -0.309306 -0.375904  0.111829  0.069605 -0.009845
    10 z      -0.038153 -0.187287  0.167403 -0.323877  0.222956 -0.155791
    11 x      -0.172260  0.018708 -0.451251 -0.122876 -0.185438 -0.022264
    11 y      -0.351179 -0.072686  0.141495  0.033069 -0.077301  0.093122
    11 z       0.110312  0.293738 -0.101137 -0.014887  0.401496  0.132638
    12 x      -0.308624  0.341531  0.039683  0.150590  0.161444  0.021489
    12 y       0.237663  0.327795 -0.043692 -0.012211  0.084775 -0.095809
    12 z       0.115916  0.127429 -0.286315 -0.380515 -0.130793  0.130840


  Frequency     440.0650  440.0650  442.1572  442.1573  461.2085  477.6642
  IR Intensity    0.0416    0.0416    0.0000    0.0000    0.0000    0.0000
     in X         0.0341    0.0003    0.0000    0.0000    0.0000    0.0000
     in Y         0.0007    0.0404    0.0000    0.0000    0.0000    0.0000
     in Z         0.0067    0.0009    0.0000    0.0000    0.0000    0.0000
  Raman Intsty    0.0000    0.0000    0.0000    0.0000    0.0000    8.1888

     1 x      -0.101938  0.021195 -0.037046  0.209812  0.373340 -0.017573
     1 y       0.005510  0.156849 -0.009340  0.052916 -0.133915 -0.067691
     1 z      -0.046394  0.028036  0.080282 -0.454703  0.156686 -0.015986
     2 x      -0.143049  0.023841 -0.163180 -0.136987 -0.096209  0.063175
     2 y       0.004802  0.111787 -0.041154 -0.034546  0.415445  0.014335
     2 z      -0.065454  0.024000  0.353644  0.296878  0.003954  0.030819
     3 x      -0.124783 -0.013092  0.200223 -0.072826 -0.277132 -0.045602
     3 y       0.044182  0.133704  0.050500 -0.018366 -0.281531  0.053356
     3 z      -0.052431  0.009525 -0.433926  0.157825 -0.160640 -0.014833
     4 x      -0.286020  0.100387  0.002980  0.002502 -0.003699  0.191475
     4 y      -0.065175  0.022022  0.000751  0.000631  0.015975  0.043453
     4 z      -0.139561  0.048884 -0.006462 -0.005424  0.000152  0.093408
     5 x      -0.014969  0.082975  0.000678 -0.003832  0.014356 -0.053257
     5 y      -0.060510  0.319110  0.000175 -0.000964 -0.005150 -0.205164
     5 z      -0.013949  0.075422 -0.001466  0.008308  0.006025 -0.048450
     6 x       0.061549 -0.320359  0.228136 -0.215389 -0.178674  0.251243
     6 y       0.226127 -0.184756 -0.174678 -0.070977 -0.181513 -0.099050
     6 z       0.251400 -0.000184 -0.261199  0.018255 -0.103571 -0.259849
     7 x       0.351936  0.191115 -0.199178  0.164028  0.240705  0.181043
     7 y      -0.156754  0.093052  0.014566  0.263321 -0.086339  0.204077
     7 z       0.192284 -0.155882 -0.026173 -0.256391  0.101020 -0.256965
     8 x      -0.165574 -0.143056 -0.003662  0.001329 -0.010657 -0.138218
     8 y       0.194444  0.166526 -0.000918  0.000338 -0.010825  0.161711
     8 z      -0.053772 -0.046630  0.007926 -0.002884 -0.006177 -0.044958
     9 x      -0.144094  0.154597 -0.236921 -0.255294 -0.062031 -0.295245
     9 y      -0.182677 -0.385568 -0.182696  0.090186  0.267851 -0.070466
     9 z       0.157063 -0.059305  0.151522  0.129518  0.002550  0.219819
    10 x       0.040112  0.090057  0.024656  0.077099 -0.062029 -0.021164
    10 y      -0.136221 -0.401847  0.129143 -0.135134  0.267853 -0.001341
    10 z      -0.242163  0.080548  0.308507  0.256669  0.002547 -0.374173
    11 x       0.388151 -0.000688  0.151000  0.108907  0.240706 -0.093038
    11 y      -0.147617  0.044684 -0.026720 -0.194488 -0.086338  0.134953
    11 z       0.113791  0.259782  0.130610 -0.335097  0.101023  0.337027
    12 x       0.209543 -0.193094  0.032316  0.120653 -0.178677 -0.022839
    12 y       0.263446 -0.152667  0.240368  0.047084 -0.181513 -0.168174
    12 z      -0.069333 -0.275994 -0.303265  0.187047 -0.103569  0.334143


  Frequency     560.2667  631.6873  631.6873  795.2957  795.2958  893.1746
  IR Intensity    0.1955    0.1452    0.1452    0.0066    0.0066    0.0000
     in X         0.0339    0.1024    0.0176    0.0049    0.0005    0.0000
     in Y         0.0022    0.0262    0.1174    0.0008    0.0057    0.0000
     in Z         0.1594    0.0166    0.0102    0.0008    0.0004    0.0000
  Raman Intsty    0.0000    0.0000    0.0000    0.0000    0.0000    2.6248

     1 x      -0.179225  0.559816 -0.079842 -0.125147  0.147017 -0.124415
     1 y      -0.045201 -0.206941 -0.022209  0.022683  0.583964 -0.479286
     1 z       0.388418  0.234230 -0.039425 -0.055106  0.135795 -0.113184
     2 x      -0.179225  0.122419  0.090283  0.444915  0.314434  0.447307
     2 y      -0.045201 -0.369655 -0.509147  0.175410 -0.047787  0.101510
     2 z       0.388418  0.013469 -0.017592  0.225707  0.139526  0.218211
     3 x      -0.179226  0.193785 -0.373577  0.304871 -0.262963 -0.322892
     3 y      -0.045201  0.133403 -0.406593 -0.448067  0.135823  0.377775
     3 z       0.388418  0.104941 -0.219693  0.088532 -0.105531 -0.105028
     4 x       0.015548 -0.108426  0.071653 -0.373740 -0.234237 -0.238636
     4 y       0.003921 -0.003420  0.044493 -0.086289 -0.050799 -0.054155
     4 z      -0.033695 -0.050428  0.038240 -0.182494 -0.113994 -0.116414
     5 x       0.015547 -0.025594  0.039436  0.006649 -0.122524  0.066375
     5 y       0.003921  0.027394  0.136707  0.015622 -0.472351  0.255697
     5 z      -0.033695 -0.008622  0.034105  0.004886 -0.111504  0.060383
     6 x       0.181853 -0.235797 -0.001266  0.014277 -0.056768  0.017606
     6 y      -0.071951  0.065145  0.128771 -0.035522 -0.031067 -0.003017
     6 z      -0.187634  0.146028  0.119941 -0.045657 -0.004226 -0.025085
     7 x       0.130932 -0.104760  0.159631 -0.059423  0.025673  0.014382
     7 y       0.147937  0.067587  0.191300  0.019817  0.033726  0.010901
     7 z      -0.185541 -0.072698 -0.170974 -0.023214 -0.038687 -0.024953
     8 x       0.015548 -0.094911 -0.016190 -0.280291  0.151045  0.172261
     8 y       0.003921  0.091846  0.063914  0.329742 -0.173317 -0.201541
     8 z      -0.033695 -0.033106 -0.000033 -0.090960  0.049527  0.056032
     9 x       0.213773 -0.228722  0.131959  0.031437  0.037416 -0.019626
     9 y       0.051015  0.032616  0.146840  0.043876 -0.049335 -0.004766
     9 z      -0.158595  0.113283 -0.083377 -0.026600 -0.017350  0.023247
    10 x      -0.015749 -0.066927  0.010548 -0.003335  0.015690  0.005098
    10 y      -0.001072  0.073422  0.116220  0.035106 -0.054815  0.001469
    10 z      -0.270563 -0.237362  0.179746  0.048759  0.029734 -0.030335
    11 x       0.067092 -0.129007 -0.041193 -0.057994 -0.015304 -0.010342
    11 y      -0.097994  0.061472  0.140651  0.020178  0.023391  0.004666
    11 z      -0.243618 -0.020149  0.264255 -0.026311  0.050118  0.028629
    12 x       0.016171 -0.049755  0.078148 -0.021924 -0.037518 -0.007118
    12 y       0.121893  0.112065  0.148799 -0.044652 -0.026212 -0.009253
    12 z      -0.241525 -0.257166 -0.052165  0.032799 -0.045946  0.028497




--------------------------------------------------------------------------------
  Vibrational properties (for cluster):  Temperature  =       0.000 K
--------------------------------------------------------------------------------
  Zero point energy            =        0.685567 eV
--------------------------------------------------------------------------------

  Phonon density of states : 

--------------------------------------------------------------------------------
 Frequency (cm-1) Density of States                                             
--------------------------------------------------------------------------------
    0.00000 |************                                                  0.029
   13.95585 |************************                                      0.059
   27.91171 |                                                              0.000
   41.86756 |************                                                  0.029
   55.82341 |                                                              0.000
   69.77927 |                                                              0.000
   83.73512 |************************                                      0.059
   97.69098 |                                                              0.000
  111.64683 |                                                              0.000
  125.60268 |************************************************************  0.147
  139.55854 |                                                              0.000
  153.51439 |************                                                  0.029
  167.47024 |************                                                  0.029
  181.42610 |                                                              0.000
  195.38195 |                                                              0.000
  209.33781 |                                                              0.000
  223.29366 |                                                              0.000
  237.24951 |                                                              0.000
  251.20537 |************************                                      0.059
  265.16122 |                                                              0.000
  279.11707 |************                                                  0.029
  293.07293 |************                                                  0.029
  307.02878 |************************                                      0.059
  320.98464 |                                                              0.000
  334.94049 |                                                              0.000
  348.89634 |************************                                      0.059
  362.85220 |                                                              0.000
  376.80805 |                                                              0.000
  390.76390 |                                                              0.000
  404.71976 |************                                                  0.029
  418.67561 |                                                              0.000
  432.63147 |************************************************              0.118
  446.58732 |                                                              0.000
  460.54317 |************                                                  0.029
  474.49903 |************                                                  0.029
  488.45488 |                                                              0.000
  502.41073 |                                                              0.000
  516.36659 |                                                              0.000
  530.32244 |                                                              0.000
  544.27830 |                                                              0.000
  558.23415 |************                                                  0.029
  572.19000 |                                                              0.000
  586.14586 |                                                              0.000
  600.10171 |                                                              0.000
  614.05756 |                                                              0.000
  628.01342 |************************                                      0.059
  641.96927 |                                                              0.000
  655.92512 |                                                              0.000
  669.88098 |                                                              0.000
  683.83683 |                                                              0.000
  697.79269 |                                                              0.000
  711.74854 |                                                              0.000
  725.70439 |                                                              0.000
  739.66025 |                                                              0.000
  753.61610 |                                                              0.000
  767.57195 |                                                              0.000
  781.52781 |************************                                      0.059
  795.48366 |                                                              0.000
  809.43952 |                                                              0.000
  823.39537 |                                                              0.000
  837.35122 |                                                              0.000
  851.30708 |                                                              0.000
  865.26293 |                                                              0.000
  879.21878 |************                                                  0.029
--------------------------------------------------------------------------------



  Time to end of optimisation =       0.0255 seconds


  Peak dynamic memory used =       0.65 MB 


  Timing analysis for GULP :

--------------------------------------------------------------------------------
  Task / Subroutine                                          Time (Seconds)
--------------------------------------------------------------------------------
  Calculation of real space energy and derivatives                0.0013
  Calculation of phonons                                          0.0016
  Calculation and manipulation of Hessian matrix                  0.0006
--------------------------------------------------------------------------------
  Total CPU time                                                  0.0255
--------------------------------------------------------------------------------


  Job Finished at 14:40.21 25th May        2022                               

