------------------------------------------------------------
          Invoking FHI-aims ...

          When using FHI-aims, please cite the following reference:

            Volker Blum, Ralf Gehrke, Felix Hanke, Paula Havu,
            Ville Havu, Xinguo Ren, Karsten Reuter, and Matthias Scheffler,
            'Ab Initio Molecular Simulations with Numeric Atom-Centered Orbitals',
            Computer Physics Communications 180, 2175-2196 (2009)

          In addition, many other developments in FHI-aims are likely important for
          your particular application. A partial list of references is given at the end of
          this file. Thank you for giving credit to the authors of these developments.

          For any questions about FHI-aims, please visit our slack channel at

            https://fhi-aims.slack.com

          and our main development and support site at

            https://aims-git.rz-berlin.mpg.de .

          The latter site, in particular, has a wiki to collect information, as well
          as an issue tracker to log discussions, suggest improvements, and report issues
          or bugs. https://aims-git.rz-berlin.mpg.de is also the main development site
          of the project and all new and updated code versions can be obtained there.
          Please send an email to aims-coordinators@fhi-berlin.mpg.de and we will add
          you to these sites. They are for you and everyone is welcome there.

------------------------------------------------------------



  Date     :  20220517, Time     :  111232.599
  Time zero on CPU 1             :   0.448460000000000E-01  s.
  Internal wall clock time zero  :           422017952.599  s.

  FHI-aims created a unique identifier for this run for later identification
  aims_uuid : 88982FD2-4C4F-46E9-A572-90B693BCA701

  Build configuration of the current instance of FHI-aims
  -------------------------------------------------------
  FHI-aims version      : 210914
  Commit number         : GITDIR-NOTFOUND
  CMake host system     : Linux-3.10.0-693.17.1.el7.x86_64
  CMake version         : 3.21.1
  Fortran compiler      : /shared/ucl/apps/intel/2018.Update3/impi/2018.3.222/intel64/bin/mpiifort (Intel) version 18.0.3.20180410
  Fortran compiler flags: -O3 -ip -fp-model precise
  C compiler            : /shared/ucl/apps/intel/2018.Update3/compilers_and_libraries_2018.3.222/linux/bin/intel64/icc (Intel) version 18.0.3.20180410
  C compiler flags      : -O3 -ip -fp-model precise -std=gnu99
  ELPA2 kernel          : AVX2
  Using MPI
  Using ScaLAPACK
  Using LibXC
  Using i-PI
  Using RLSY
  Linking against: /shared/ucl/apps/intel/2019.Update5/compilers_and_libraries_2019.5.281/linux/mkl/lib/intel64/libmkl_intel_lp64.so
                   /shared/ucl/apps/intel/2019.Update5/compilers_and_libraries_2019.5.281/linux/mkl/lib/intel64/libmkl_sequential.so
                   /shared/ucl/apps/intel/2019.Update5/compilers_and_libraries_2019.5.281/linux/mkl/lib/intel64/libmkl_core.so
                   /shared/ucl/apps/intel/2019.Update5/compilers_and_libraries_2019.5.281/linux/mkl/lib/intel64/libmkl_blacs_intelmpi_lp64.so
                   /shared/ucl/apps/intel/2019.Update5/compilers_and_libraries_2019.5.281/linux/mkl/lib/intel64/libmkl_scalapack_lp64.so

  Using       24 parallel tasks.
  Task        0 on host node-k98a-011 reporting.
  Task        1 on host node-k98a-011 reporting.
  Task        2 on host node-k98a-011 reporting.
  Task        3 on host node-k98a-011 reporting.
  Task        4 on host node-k98a-011 reporting.
  Task        5 on host node-k98a-011 reporting.
  Task        6 on host node-k98a-011 reporting.
  Task        7 on host node-k98a-011 reporting.
  Task        8 on host node-k98a-011 reporting.
  Task        9 on host node-k98a-011 reporting.
  Task       10 on host node-k98a-011 reporting.
  Task       11 on host node-k98a-011 reporting.
  Task       12 on host node-k98a-011 reporting.
  Task       13 on host node-k98a-011 reporting.
  Task       14 on host node-k98a-011 reporting.
  Task       15 on host node-k98a-011 reporting.
  Task       16 on host node-k98a-011 reporting.
  Task       17 on host node-k98a-011 reporting.
  Task       18 on host node-k98a-011 reporting.
  Task       19 on host node-k98a-011 reporting.
  Task       20 on host node-k98a-011 reporting.
  Task       21 on host node-k98a-011 reporting.
  Task       22 on host node-k98a-011 reporting.
  Task       23 on host node-k98a-011 reporting.

  Performing system and environment tests:
  | Environment variable OMP_NUM_THREADS correctly set to 1.
  | Checking for ScaLAPACK...
  | Testing pdtran()...
  | All pdtran() tests passed.

  Obtaining array dimensions for all initial allocations:
  
  -----------------------------------------------------------------------
  Parsing control.in (first pass over file, find array dimensions only).
  The contents of control.in will be repeated verbatim below
  unless switched off by setting 'verbatim_writeout .false.' .
  in the first line of control.in .
  -----------------------------------------------------------------------
  
  #########################################################################################  Physical model
  #########################################################################################
  xc                 pbesol
  spin               none
  relativistic       atomic_zora scalar
  charge             0.0
  #  SCF convergence
  occupation_type    gaussian 0.01
  mixer              pulay
  n_max_pulay        10
  charge_mix_param   0.5
  sc_accuracy_rho    1E-5
  sc_accuracy_eev    1E-3
  sc_accuracy_etot   1E-6
  sc_accuracy_forces 1E-4
  sc_iter_limit      1500
  #  Relaxation
  #relax_geometry   bfgs 1.e-3
  
  ################################################################################
  #
  #  FHI-aims code project
  #  VB, Fritz-Haber Institut, 2009
  #
  #  Suggested "light" defaults for Al atom (to be pasted into control.in file)
  #  Be sure to double-check any results obtained with these settings for post-processing,
  #  e.g., with the "tight" defaults and larger basis sets.
  #
  ################################################################################
    species        Al
  #     global species definitions
      nucleus             13
      mass                26.9815386
  #
      l_hartree           4
  #
      cut_pot             3.5          1.5  1.0
      basis_dep_cutoff    1e-4
  #
      radial_base         41 5.0
      radial_multiplier   1
      angular_grids       specified
        division   0.6594  110
        division   0.8170  194
        division   0.9059  302
  #      division   1.0363  434
  #      division   1.1443  590
  #      division   1.2621  770
  #      division   2.8177  974
  #      outer_grid   974
        outer_grid   302
  ################################################################################
  #
  #  Definition of "minimal" basis
  #
  ################################################################################
  #     valence basis states
      valence      3  s   2.
      valence      3  p   1.
  #     ion occupancy
      ion_occ      3  s   1.
      ion_occ      2  p   6.
  ################################################################################
  #
  #  Suggested additional basis functions. For production calculations,
  #  uncomment them one after another (the most important basis functions are
  #  listed first).
  #
  #  Constructed for dimers: 2.0 A, 2.5 A, 3.0 A, 3.75 A, 4.5 A
  #
  ################################################################################
  #  "First tier" - improvements: -199.47 meV to -10.63 meV
       ionic 3 d auto
       ionic 3 p auto
  #     hydro 4 f 4.7
       ionic 3 s auto
  #  "Second tier" - improvements: -5.35 meV to -1.57 meV
  #     hydro 5 g 7
  #     hydro 3 d 6
  #     hydro 2 s 11.6
  #     hydro 2 p 0.9
  #  "Third tier" - improvements: -0.63 meV to -0.20 meV
  #     hydro 5 f 7.6
  #     hydro 4 p 7.2
  #     hydro 4 s 3.7
  #     hydro 4 d 7.6
  #  "Fourth tier" - improvements: -0.17 meV to -0.08 meV
  #     hydro 4 d 13.6
  #     hydro 5 g 11.2
  #     hydro 4 d 0.9
  #     hydro 1 s 0.4
  #     hydro 4 p 0.1
  #     hydro 5 f 9.8
  #  Further basis functions that fell out of the optimization - noise level...
  #     hydro 4 p 5
  
  ################################################################################
  #
  #  FHI-aims code project
  #  VB, Fritz-Haber Institut, 2009
  #
  #  Suggested "light" defaults for F atom (to be pasted into control.in file)
  #  Be sure to double-check any results obtained with these settings for post-processing,
  #  e.g., with the "tight" defaults and larger basis sets.
  #
  ################################################################################
    species        F
  #     global species definitions
      nucleus             9
      mass                18.9984032
  #
      l_hartree           4
  #
      cut_pot             3.5  1.5  1.0
      basis_dep_cutoff    1e-4
  #
      radial_base         37 5.0
      radial_multiplier   1
      angular_grids specified
        division   0.4014  110
        division   0.5291  194
        division   0.6019  302
  #      division   0.6814  434
  #      division   0.7989  590
  #      division   0.8965  770
  #      division   1.3427  974
  #      outer_grid   974
        outer_grid   302
  ################################################################################
  #
  #  Definition of "minimal" basis
  #
  ################################################################################
  #     valence basis states
      valence      2  s   2.
      valence      2  p   5.
  #     ion occupancy
      ion_occ      2  s   1.
      ion_occ      2  p   4.
  ################################################################################
  #
  #  Suggested additional basis functions. For production calculations,
  #  uncomment them one after another (the most important basis functions are
  #  listed first).
  #
  #  Constructed for dimers: 1.2 A, 1.418 A, 1.75 A, 2.25 A, 3.25 A
  #
  ################################################################################
  #  "First tier" - improvements: -149.44 meV to -45.88 meV
       hydro 2 p 1.7
       hydro 3 d 7.4
       hydro 3 s 6.8
  #  "Second tier" - improvements: -12.96 meV to -1.56 meV
  #     hydro 4 f 11.2
  #     ionic 2 p auto
  #     hydro 1 s 0.75
  #     hydro 4 d 8.8
  #     hydro 5 g 16.8
  #  "Third tier" - improvements: -0.58 meV to -0.05 meV
  #     hydro 3 p 6.2
  #     hydro 3 s 3.2
  #     hydro 4 f 9.6
  #     hydro 3 s 19.6
  #     hydro 4 d 8.6
  #     hydro 5 g 14.4
  # Further basis functions: -0.05 meV and below
  #     hydro 3 p 4.2
  
  -----------------------------------------------------------------------
  Completed first pass over input file control.in .
  -----------------------------------------------------------------------
  
  
  -----------------------------------------------------------------------
  Parsing geometry.in (first pass over file, find array dimensions only).
  The contents of geometry.in will be repeated verbatim below
  unless switched off by setting 'verbatim_writeout .false.' .
  in the first line of geometry.in .
  -----------------------------------------------------------------------
  
  atom 1.287525062 0.110108516 2.318147637 Al
  atom 1.155859400 1.248646600 -0.442906000 Al
  atom -0.403065385 0.813468964 -2.431855873 Al
  atom -1.551246404 -0.264006544 -2.226669677 F
  atom 2.096016992 -0.439180154 0.863329713 F
  atom 0.020406784 1.742507254 -3.680508594 F
  atom -0.254797426 1.912614881 -0.673895695 F
  atom 2.590028153 2.419889309 -0.313953444 F
  atom 1.308232423 0.089674328 -1.500131577 F
  atom 0.415374671 1.520926023 1.751736702 F
  atom 2.644029530 0.638643219 3.718199409 F
  atom -0.090094241 -1.310793859 2.846998186 F
  
  -----------------------------------------------------------------------
  Completed first pass over input file geometry.in .
  -----------------------------------------------------------------------
  

  Basic array size parameters:
  | Number of species                 :        2
  | Number of atoms                   :       12
  | Max. basis fn. angular momentum   :        2
  | Max. atomic/ionic basis occupied n:        3
  | Max. number of basis fn. types    :        3
  | Max. radial fns per species/type  :        5
  | Max. logarithmic grid size        :     1340
  | Max. radial integration grid size :       41
  | Max. angular integration grid size:      302
  | Max. angular grid division number :        8
  | Radial grid for Hartree potential :     1340
  | Number of spin channels           :        1

------------------------------------------------------------
          Reading file control.in.
------------------------------------------------------------
  XC: Using PBEsol gradient-corrected functionals.
  Spin treatment: No spin polarisation.
  Scalar relativistic treatment of kinetic energy: on-site free-atom approximation to ZORA.
  Charge =   0.000000E+00: Neutral system requested explicitly.
  Occupation type: Gaussian broadening, width =   0.100000E-01 eV.
  Using pulay charge density mixing.
  Pulay mixing - number of memorized iterations:   10
  Charge density mixing - mixing parameter:     0.5000
  Convergence accuracy of self-consistent charge density:  0.1000E-04
  Convergence accuracy of sum of eigenvalues:  0.1000E-02
  Convergence accuracy of total energy:  0.1000E-05
  Convergence accuracy of forces:  0.1000E-03
  Maximum number of s.-c. iterations  :  1500
 
  Reading configuration options for species Al                  .
  | Found nuclear charge :  13.0000
  | Found atomic mass :    26.9815386000000      amu
  | Found l_max for Hartree potential  :   4
  | Found cutoff potl. onset [A], width [A], scale factor :    3.50000    1.50000    1.00000
  | Threshold for basis-dependent cutoff potential is   0.100000E-03
  | Found data for basic radial integration grid :    41 points, outermost radius =    5.000 A
  | Found multiplier for basic radial grid :   1
  | Found angular grid specification: user-specified.
  | Specified grid contains     4 separate shells.
  | Check grid settings after all constraints further below.
  | Found free-atom valence shell :  3 s   2.000
  | Found free-atom valence shell :  3 p   1.000
  | Found free-ion valence shell :  3 s   1.000
  | Found free-ion valence shell :  2 p   6.000
  | Found ionic basis function :  3 d , default cutoff radius.
  | Found ionic basis function :  3 p , default cutoff radius.
  | Found ionic basis function :  3 s , default cutoff radius.
  Species Al                  : Missing cutoff potential type.
  Defaulting to exp(1/x)/(1-x)^2 type cutoff potential.
  Species Al: No 'logarithmic' tag. Using default grid for free atom:
  | Default logarithmic grid data [bohr] : 0.1000E-03 0.1000E+03 0.1012E+01
  | Will include ionic basis functions of  2.0-fold positive Al                   ion.
  Species Al: On-site basis accuracy parameter (for Gram-Schmidt orthonormalisation) not specified.
  Using default value basis_acc =  0.1000000E-03.
  Species Al                  : Using default innermost maximum threshold i_radial=  2 for radial functions.
  Species Al                  : Default cutoff onset for free atom density etc. : 0.35000000E+01 AA.
  Species Al                  : Basic radial grid will be enhanced according to radial_multiplier =   1, to contain    41 grid points.
 
  Reading configuration options for species F                   .
  | Found nuclear charge :   9.0000
  | Found atomic mass :    18.9984032000000      amu
  | Found l_max for Hartree potential  :   4
  | Found cutoff potl. onset [A], width [A], scale factor :    3.50000    1.50000    1.00000
  | Threshold for basis-dependent cutoff potential is   0.100000E-03
  | Found data for basic radial integration grid :    37 points, outermost radius =    5.000 A
  | Found multiplier for basic radial grid :   1
  | Found angular grid specification: user-specified.
  | Specified grid contains     4 separate shells.
  | Check grid settings after all constraints further below.
  | Found free-atom valence shell :  2 s   2.000
  | Found free-atom valence shell :  2 p   5.000
  | Found free-ion valence shell :  2 s   1.000
  | Found free-ion valence shell :  2 p   4.000
  | Found hydrogenic basis function :  2 p   1.700
  | Found hydrogenic basis function :  3 d   7.400
  | Found hydrogenic basis function :  3 s   6.800
  Species F                   : Missing cutoff potential type.
  Defaulting to exp(1/x)/(1-x)^2 type cutoff potential.
  Species F : No 'logarithmic' tag. Using default grid for free atom:
  | Default logarithmic grid data [bohr] : 0.1000E-03 0.1000E+03 0.1012E+01
  Species F : On-site basis accuracy parameter (for Gram-Schmidt orthonormalisation) not specified.
  Using default value basis_acc =  0.1000000E-03.
  Species F                   : Using default innermost maximum threshold i_radial=  2 for radial functions.
  Species F                   : Default cutoff onset for free atom density etc. : 0.35000000E+01 AA.
  Species F                   : Basic radial grid will be enhanced according to radial_multiplier =   1, to contain    37 grid points.
 
  Finished reading input file 'control.in'.
 
------------------------------------------------------------


------------------------------------------------------------
          Reading geometry description geometry.in.
------------------------------------------------------------
  | The smallest distance between any two atoms is         1.57612188 AA.
  | The first atom of this pair is atom number                      2 .
  | The second atom of this pair is atom number                     9 .
  Input structure read successfully.
  The structure contains       12 atoms,  and a total of        120.000 electrons.

  Input geometry:
  | No unit cell requested.
  | Atomic structure:
  |       Atom                x [A]            y [A]            z [A]
  |    1: Species Al            1.28752506        0.11010852        2.31814764
  |    2: Species Al            1.15585940        1.24864660       -0.44290600
  |    3: Species Al           -0.40306538        0.81346896       -2.43185587
  |    4: Species F            -1.55124640       -0.26400654       -2.22666968
  |    5: Species F             2.09601699       -0.43918015        0.86332971
  |    6: Species F             0.02040678        1.74250725       -3.68050859
  |    7: Species F            -0.25479743        1.91261488       -0.67389570
  |    8: Species F             2.59002815        2.41988931       -0.31395344
  |    9: Species F             1.30823242        0.08967433       -1.50013158
  |   10: Species F             0.41537467        1.52092602        1.75173670
  |   11: Species F             2.64402953        0.63864322        3.71819941
  |   12: Species F            -0.09009424       -1.31079386        2.84699819

 
  Finished reading input file 'control.in'.
 

------------------------------------------------------------
          Reading geometry description geometry.in.
------------------------------------------------------------
 
  Consistency checks for stacksize environment parameter are next.
 
  | Maximum stacksize for task 0: unlimited
  | Maximum stacksize for task 1: unlimited
  | Maximum stacksize for task 2: unlimited
  | Maximum stacksize for task 3: unlimited
  | Maximum stacksize for task 4: unlimited
  | Maximum stacksize for task 5: unlimited
  | Maximum stacksize for task 6: unlimited
  | Maximum stacksize for task 7: unlimited
  | Maximum stacksize for task 8: unlimited
  | Maximum stacksize for task 9: unlimited
  | Maximum stacksize for task 10: unlimited
  | Maximum stacksize for task 11: unlimited
  | Maximum stacksize for task 12: unlimited
  | Maximum stacksize for task 13: unlimited
  | Maximum stacksize for task 14: unlimited
  | Maximum stacksize for task 15: unlimited
  | Maximum stacksize for task 16: unlimited
  | Maximum stacksize for task 17: unlimited
  | Maximum stacksize for task 18: unlimited
  | Maximum stacksize for task 19: unlimited
  | Maximum stacksize for task 20: unlimited
  | Maximum stacksize for task 21: unlimited
  | Maximum stacksize for task 22: unlimited
  | Maximum stacksize for task 23: unlimited
  | Current stacksize for task 0: unlimited
  | Current stacksize for task 1: unlimited
  | Current stacksize for task 2: unlimited
  | Current stacksize for task 3: unlimited
  | Current stacksize for task 4: unlimited
  | Current stacksize for task 5: unlimited
  | Current stacksize for task 6: unlimited
  | Current stacksize for task 7: unlimited
  | Current stacksize for task 8: unlimited
  | Current stacksize for task 9: unlimited
  | Current stacksize for task 10: unlimited
  | Current stacksize for task 11: unlimited
  | Current stacksize for task 12: unlimited
  | Current stacksize for task 13: unlimited
  | Current stacksize for task 14: unlimited
  | Current stacksize for task 15: unlimited
  | Current stacksize for task 16: unlimited
  | Current stacksize for task 17: unlimited
  | Current stacksize for task 18: unlimited
  | Current stacksize for task 19: unlimited
  | Current stacksize for task 20: unlimited
  | Current stacksize for task 21: unlimited
  | Current stacksize for task 22: unlimited
  | Current stacksize for task 23: unlimited
 
  Consistency checks for the contents of control.in are next.
 
  MPI_IN_PLACE appears to work with this MPI implementation.
  | Keeping use_mpi_in_place .true. (see manual).
  Target number of points in a grid batch is not set. Defaulting to  100
  Method for grid partitioning is not set. Defaulting to parallel hash+maxmin partitioning.
  Batch size limit is not set. Defaulting to    200
  By default, will store active basis functions for each batch.
  If in need of memory, prune_basis_once .false. can be used to disable this option.
  communication_type for Hartree potential was not specified.
  Defaulting to calc_hartree .
  Pulay mixer: Number of initial linear mixing iterations not set.
  Defaulting to    0 iterations.
  Work space size for distributed Hartree potential not set.
  Defaulting to   0.200000E+03 MB.
  Algorithm-dependent basis array size parameters:
  | n_max_pulay                         :       10
  Presetting      1001 iterations before the initial mixing cycle
  is restarted anyway using the sc_init_iter criterion / keyword.
  Presetting a factor      1.000 between actual scf density residual
  and density convergence criterion sc_accuracy_rho below which sc_init_iter
  takes no effect.
  Geometry relaxation not requested: no relaxation will be performed.
  Forces evaluation will include force correction term due to incomplete self-consistency (default).
  Handling of forces: Unphysical translation and rotation will be removed from forces.
  No accuracy limit for integral partition fn. given. Defaulting to  0.1000E-14.
  No threshold value for u(r) in integrations given. Defaulting to  0.1000E-05.
  No accuracy for occupation numbers given. Defaulting to  0.1000E-12.
  No threshold value for occupation numbers given. Defaulting to  0.0000E+00.
  No accuracy for fermi level given. Defaulting to  0.1000E-19.
  Maximum # of iterations to find E_F not set. Defaulting to  200.
  Preferred method for the eigenvalue solver ('KS_method') not specified in 'control.in'.
  Calling BLACS routine to test compilation state
  Since ScaLAPACK support is enabled, defaulting to ELPA (via ELSI).
  Will not use alltoall communication since running on < 1024 CPUs.
  Threshold for basis singularities not set.
  Default threshold for basis singularities:  0.1000E-04
  partition_type (choice of integration weights) for integrals was not specified.
  | Using a version of the partition function of Stratmann and coworkers ('stratmann_sparse').
  | At each grid point, the set of atoms used to build the partition table is smoothly restricted to
  | only those atoms whose free-atom density would be non-zero at that grid point.
  Partitioning for Hartree potential was not defined. Using partition_type for integrals.
  | Adjusted default value of keyword multip_moments_threshold to:       0.10000000E-11
  | This value may affect high angular momentum components of the Hartree potential in periodic systems.
  No q(lm)/r^(l+1) cutoff set for long-range Hartree potential.
  | Using default value of  0.100000E-09 .
  | Verify using the multipole_threshold keyword.
  Defaulting to new monopole extrapolation.
  Density update method: automatic selection selected.
  Charge integration errors on the 3D integration grid will be compensated
  by explicit normalization and distribution of residual charges.
  Use the "compensate_multipole_errors" flag to change this behaviour.
  Set 'collect_eigenvectors' to be '.true.' for use_density_matrix .false.
 
  Consistency checks for the contents of geometry.in are next.
 
  Number of empty states per atom not set in control.in - providing a guess from actual geometry.
  | Total number of empty states used during s.c.f. cycle:       36
  If you use a very high smearing, use empty_states (per atom!) in control.in to increase this value.

  Structure-dependent array size parameters: 
  | Maximum number of distinct radial functions  :       14
  | Maximum number of basis functions            :      180
  | Number of Kohn-Sham states (occupied + empty):       96
------------------------------------------------------------

------------------------------------------------------------
          Preparing all fixed parts of the calculation.
------------------------------------------------------------
  Determining machine precision:
    2.225073858507201E-308
  Setting up grids for atomic and cluster calculations.

  Creating wave function, potential, and density for free atoms.

  Species: Al

  List of occupied orbitals and eigenvalues:
    n    l              occ      energy [Ha]    energy [eV]
    1    0           2.0000       -55.621123     -1513.5278
    2    0           2.0000        -3.957030      -107.6763
    3    0           2.0000        -0.272233        -7.4078
    2    1           6.0000        -2.540949       -69.1427
    3    1           1.0000        -0.083300        -2.2667


  Species: F

  List of occupied orbitals and eigenvalues:
    n    l              occ      energy [Ha]    energy [eV]
    1    0           2.0000       -24.399611      -663.9472
    2    0           2.0000        -1.098702       -29.8972
    2    1           5.0000        -0.408210       -11.1080


  Adding cutoff potential to free-atom effective potential.
  Creating fixed part of basis set: Ionic, confined, hydrogenic.
 
  Al                   ion:

  List of free ionic orbitals and eigenvalues:
    n    l      energy [Ha]    energy [eV]
    1    0       -56.418846     -1535.2349
    2    0        -4.732717      -128.7838
    3    0        -0.872690       -23.7471
    2    1        -3.317230       -90.2664


  List of ionic basis orbitals and eigenvalues:
    n    l      energy [Ha]    energy [eV]    outer radius [A]
    3    2        -0.346815        -9.4373       4.594041
    3    1        -0.631870       -17.1940       4.538221
    3    0        -0.872657       -23.7462       4.538221

 
  F                    hydrogenic:
 
  List of hydrogenic basis orbitals: 
    n    l      effective z      eigenvalue [eV]  inner max. [A]     outer max. [A]     outer radius [A]   
    2    1         1.700000        -9.7616           1.243167           1.243167           4.598524
    3    2         7.400000       -82.7828           0.642437           0.642437           3.305741
    3    0         6.800000       -69.9026           0.057798           1.022307           3.781556
 
  Creating atomic-like basis functions for current effective potential.

  Species Al                  :

  List of atomic basis orbitals and eigenvalues:
    n    l      energy [Ha]    energy [eV]    outer radius [A]
    1    0       -55.621123     -1513.5278       0.850197
    2    0        -3.957030      -107.6763       3.144911
    3    0        -0.272233        -7.4078       4.594041
    2    1        -2.540949       -69.1427       3.731966
    3    1        -0.083300        -2.2667       4.594041


  Species F                   :

  List of atomic basis orbitals and eigenvalues:
    n    l      energy [Ha]    energy [eV]    outer radius [A]
    1    0       -24.399611      -663.9472       1.258458
    2    0        -1.098702       -29.8972       4.325857
    2    1        -0.408210       -11.1080       4.487453

  Assembling full basis from fixed parts.
  | Species Al :   atomic orbital   1 s accepted.
  | Species Al :   atomic orbital   2 s accepted.
  | Species Al :    ionic orbital   3 s accepted.
  | Species Al :   atomic orbital   3 s accepted.
  | Species Al :   atomic orbital   2 p accepted.
  | Species Al :    ionic orbital   3 p accepted.
  | Species Al :   atomic orbital   3 p accepted.
  | Species Al :    ionic orbital   3 d accepted.
  | Species F :   atomic orbital   1 s accepted.
  | Species F :    hydro orbital   3 s accepted.
  | Species F :   atomic orbital   2 s accepted.
  | Species F :   atomic orbital   2 p accepted.
  | Species F :    hydro orbital   2 p accepted.
  | Species F :    hydro orbital   3 d accepted.
 
  Basis size parameters after reduction:
  | Total number of radial functions:       14
  | Total number of basis functions :      180
 
  Per-task memory consumption for arrays in subroutine allocate_ext:
  |           4.807768MB.
  Testing on-site integration grid accuracy.
  |  Species  Function  <phi|h_atom|phi> (log., in eV)  <phi|h_atom|phi> (rad., in eV)
           1        1              -1513.5277717935              -1513.5271881332
           1        2               -107.6762691836               -107.6762662489
           1        3                 -6.9467474784                 -6.9471269649
           1        4                  5.5771951849                  5.4862107220 ***
           1        5                -69.1427313144                -69.1427312731
           1        6                 -1.5197375330                 -1.5230432022
           1        7                  6.8210948310                  6.5529872240 ***
           1        8                  4.3216540965                  4.2851170187 ***
           2        9               -663.9471986398               -663.9470363334
           2       10                 16.8514011578                 16.8512525338
           2       11                -28.4490593856                -28.4490661472
           2       12                -11.1080115307                -11.1080620173
           2       13                  7.1940182175                  7.1685154137
           2       14                 44.8544281765                 44.8543763625
 * Note: Onsite integrals marked "***" above are less accurate than
 * onsite_accuracy_threshold =    0.03000 eV. Usually, this is harmless.
 * When in doubt, tighten the "radial" and/or "radial_multiplier" flags to check.

  Preparing densities etc. for the partition functions (integrals / Hartree potential).

  Preparations completed.
  max(cpu_time)          :      0.184 s.
  Wall clock time (cpu1) :      0.184 s.
------------------------------------------------------------

------------------------------------------------------------
          Begin self-consistency loop: Initialization.

          Date     :  20220517, Time     :  111232.830
------------------------------------------------------------

  Initializing index lists of integration centers etc. from given atomic structure:
  | Number of centers in hartree potential         :        12
  | Number of centers in hartree multipole         :        12
  | Number of centers in electron density summation:        12
  | Number of centers in basis integrals           :        12
  | Number of centers in integrals                 :        12
  | Number of centers in hamiltonian               :        12
  * Using 24 tasks for Scalapack Eigenvalue solver.
  Detailed listing of tasks and assigned k-points:
  (for non-periodic systems, the "k-point" denotes an internal label only)
   Task     0 k-point     1 on node-k98a-011
   Task     1 k-point     1 on node-k98a-011
   Task     2 k-point     1 on node-k98a-011
   Task     3 k-point     1 on node-k98a-011
   Task     4 k-point     1 on node-k98a-011
   Task     5 k-point     1 on node-k98a-011
   Task     6 k-point     1 on node-k98a-011
   Task     7 k-point     1 on node-k98a-011
   Task     8 k-point     1 on node-k98a-011
   Task     9 k-point     1 on node-k98a-011
   Task    10 k-point     1 on node-k98a-011
   Task    11 k-point     1 on node-k98a-011
   Task    12 k-point     1 on node-k98a-011
   Task    13 k-point     1 on node-k98a-011
   Task    14 k-point     1 on node-k98a-011
   Task    15 k-point     1 on node-k98a-011
   Task    16 k-point     1 on node-k98a-011
   Task    17 k-point     1 on node-k98a-011
   Task    18 k-point     1 on node-k98a-011
   Task    19 k-point     1 on node-k98a-011
   Task    20 k-point     1 on node-k98a-011
   Task    21 k-point     1 on node-k98a-011
   Task    22 k-point     1 on node-k98a-011
   Task    23 k-point     1 on node-k98a-011
  Tasks:    24 split into      6 X      4 BLACS grid
  Calculating block size based on n_basis =          180  max_nprow =            6  max_npcol =            4
  ScaLAPACK block size set to:           16
  Allocating        0.012 MB for ovlp
  Allocating        0.012 MB for ham
  Allocating        0.012 MB for eigenvec
  Required Scalapack workspace - INTEGER:            1  REAL:             1
  Partitioning the integration grid into batches with parallel hashing+maxmin method.
  | Number of batches:     1064
  | Maximal batch size:     200
  | Minimal batch size:      23
  | Average batch size:      86.391
  | Standard deviation of batch sizes:      25.768

  Integration load balanced across    24 MPI tasks.
  Work distribution over tasks is as follows:
  Task     0 has       3877 integration points.
  Task     1 has       3877 integration points.
  Task     2 has       3774 integration points.
  Task     3 has       3865 integration points.
  Task     4 has       3885 integration points.
  Task     5 has       3807 integration points.
  Task     6 has       3783 integration points.
  Task     7 has       3880 integration points.
  Task     8 has       3786 integration points.
  Task     9 has       3817 integration points.
  Task    10 has       3873 integration points.
  Task    11 has       3785 integration points.
  Task    12 has       3793 integration points.
  Task    13 has       3777 integration points.
  Task    14 has       3788 integration points.
  Task    15 has       3825 integration points.
  Task    16 has       3803 integration points.
  Task    17 has       3874 integration points.
  Task    18 has       3881 integration points.
  Task    19 has       3876 integration points.
  Task    20 has       3773 integration points.
  Task    21 has       3877 integration points.
  Task    22 has       3880 integration points.
  Task    23 has       3764 integration points.
  Initializing partition tables, free-atom densities, potentials, etc. across the integration grid (initialize_grid_storage).
  | initialize_grid_storage: Actual outermost partition radius vs. multipole_radius_free
  | (-- VB: in principle, multipole_radius_free should be larger, hence this output)
  | Species        1: Confinement radius =              4.999999999999999 AA, multipole_radius_free =              5.004487022111096 AA.
  | Species        1: outer_partition_radius set to              5.004487022111096 AA .
  | Species        2: Confinement radius =              4.999999999999999 AA, multipole_radius_free =              5.009370088163274 AA.
  | Species        2: outer_partition_radius set to              5.009370088163274 AA .
  | The sparse table of interatomic distances needs          1.64 kbyte instead of         1.15 kbyte of memory.
  | Using the partition_type stratmann_smoother will reduce your memory usage.
  | Net number of integration points:    91920
  | of which are non-zero points    :    85807
  Renormalizing the initial density to the exact electron count on the 3D integration grid.
  | Initial density: Formal number of electrons (from input files) :     120.0000000000
  | Integrated number of electrons on 3D grid     :     119.9999109673
  | Charge integration error                      :      -0.0000890327
  | Normalization factor for density and gradient :       1.0000007419
  Renormalizing the free-atom superposition density to the exact electron count on the 3D integration grid.
  | Formal number of electrons (from input files) :     120.0000000000
  | Integrated number of electrons on 3D grid     :     119.9999109673
  | Charge integration error                      :      -0.0000890327
  | Normalization factor for density and gradient :       1.0000007419
  Obtaining max. number of non-zero basis functions in each batch (get_n_compute_maxes).
  | Maximal number of non-zero basis functions:      163 in task     0
  | Maximal number of non-zero basis functions:      163 in task     1
  | Maximal number of non-zero basis functions:      160 in task     2
  | Maximal number of non-zero basis functions:      160 in task     3
  | Maximal number of non-zero basis functions:      161 in task     4
  | Maximal number of non-zero basis functions:      158 in task     5
  | Maximal number of non-zero basis functions:      163 in task     6
  | Maximal number of non-zero basis functions:      159 in task     7
  | Maximal number of non-zero basis functions:      165 in task     8
  | Maximal number of non-zero basis functions:      165 in task     9
  | Maximal number of non-zero basis functions:      159 in task    10
  | Maximal number of non-zero basis functions:      164 in task    11
  | Maximal number of non-zero basis functions:      164 in task    12
  | Maximal number of non-zero basis functions:      158 in task    13
  | Maximal number of non-zero basis functions:      163 in task    14
  | Maximal number of non-zero basis functions:      165 in task    15
  | Maximal number of non-zero basis functions:      163 in task    16
  | Maximal number of non-zero basis functions:      165 in task    17
  | Maximal number of non-zero basis functions:      159 in task    18
  | Maximal number of non-zero basis functions:      159 in task    19
  | Maximal number of non-zero basis functions:      159 in task    20
  | Maximal number of non-zero basis functions:      164 in task    21
  | Maximal number of non-zero basis functions:      165 in task    22
  | Maximal number of non-zero basis functions:      159 in task    23
  Selecting the method for density update.
  Loop over occupied states selected for charge density update.
  Allocating        0.132 MB for KS_eigenvector
  Integrating Hamiltonian matrix: batch-based integration.
  Time summed over all CPUs for integration: real work        0.684 s, elapsed        0.721 s
  Integrating overlap matrix.
  Time summed over all CPUs for integration: real work        0.261 s, elapsed        0.281 s
  Deallocating overlap matrix.

  Updating Kohn-Sham eigenvalues and eigenvectors using ELSI and the ELPA eigensolver.
  Overlap matrix is not singular
  | Lowest and highest eigenvalues :  0.3190E-02,  0.4862E+01
  Finished singularity check of overlap matrix
  | Time :     0.004 s
  Starting ELPA eigensolver
  Finished Cholesky decomposition
  | Time :     0.001 s
  Finished transformation to standard eigenproblem
  | Time :     0.001 s
  Finished solving standard eigenproblem
  | Time :     0.004 s
  Finished back-transformation of eigenvectors
  | Time :     0.000 s

  Obtaining occupation numbers and chemical potential using ELSI.
  | Chemical potential (Fermi level):    -7.62767038 eV
  Writing Kohn-Sham eigenvalues.

  State    Occupation    Eigenvalue [Ha]    Eigenvalue [eV]
      1       2.00000         -55.491610        -1510.00354
      2       2.00000         -55.489505        -1509.94625
      3       2.00000         -55.483142        -1509.77311
      4       2.00000         -24.398686         -663.92202
      5       2.00000         -24.398685         -663.92201
      6       2.00000         -24.378402         -663.37008
      7       2.00000         -24.372958         -663.22193
      8       2.00000         -24.356563         -662.77580
      9       2.00000         -24.356563         -662.77580
     10       2.00000         -24.336153         -662.22041
     11       2.00000         -24.322574         -661.85092
     12       2.00000         -24.320795         -661.80251
     13       2.00000          -3.960786         -107.77847
     14       2.00000          -3.957407         -107.68653
     15       2.00000          -3.948080         -107.43273
     16       2.00000          -2.555935          -69.55053
     17       2.00000          -2.554664          -69.51594
     18       2.00000          -2.554239          -69.50438
     19       2.00000          -2.549197          -69.36719
     20       2.00000          -2.549016          -69.36224
     21       2.00000          -2.545788          -69.27442
     22       2.00000          -2.540717          -69.13644
     23       2.00000          -2.540425          -69.12848
     24       2.00000          -2.538682          -69.08104
     25       2.00000          -1.238821          -33.71004
     26       2.00000          -1.224027          -33.30746
     27       2.00000          -1.200619          -32.67051
     28       2.00000          -1.191473          -32.42164
     29       2.00000          -1.177689          -32.04654
     30       2.00000          -1.169426          -31.82169
     31       2.00000          -1.142844          -31.09836
     32       2.00000          -1.122872          -30.55490
     33       2.00000          -1.120051          -30.47814
     34       2.00000          -0.585000          -15.91865
     35       2.00000          -0.577081          -15.70316
     36       2.00000          -0.557948          -15.18255
     37       2.00000          -0.541366          -14.73131
     38       2.00000          -0.535913          -14.58294
     39       2.00000          -0.534242          -14.53747
     40       2.00000          -0.526274          -14.32064
     41       2.00000          -0.521541          -14.19184
     42       2.00000          -0.513664          -13.97751
     43       2.00000          -0.500894          -13.63002
     44       2.00000          -0.499470          -13.59128
     45       2.00000          -0.493594          -13.43138
     46       2.00000          -0.491605          -13.37727
     47       2.00000          -0.485389          -13.20811
     48       2.00000          -0.485162          -13.20193
     49       2.00000          -0.481130          -13.09223
     50       2.00000          -0.478926          -13.03224
     51       2.00000          -0.470031          -12.79019
     52       2.00000          -0.466952          -12.70642
     53       2.00000          -0.462503          -12.58534
     54       2.00000          -0.451952          -12.29824
     55       2.00000          -0.445655          -12.12689
     56       2.00000          -0.445501          -12.12270
     57       2.00000          -0.432459          -11.76780
     58       2.00000          -0.430793          -11.72247
     59       2.00000          -0.427952          -11.64517
     60       2.00000          -0.427031          -11.62010
     61       0.00000          -0.145927           -3.97086
     62       0.00000          -0.115643           -3.14681
     63       0.00000          -0.069138           -1.88134
     64       0.00000          -0.032847           -0.89381
     65       0.00000          -0.026343           -0.71683
     66       0.00000          -0.013354           -0.36338
     67       0.00000           0.003858            0.10497
     68       0.00000           0.026070            0.70941
     69       0.00000           0.053604            1.45863
     70       0.00000           0.070161            1.90917
     71       0.00000           0.081849            2.22722
     72       0.00000           0.099233            2.70027
     73       0.00000           0.136592            3.71687
     74       0.00000           0.158821            4.32175
     75       0.00000           0.170465            4.63860
     76       0.00000           0.171194            4.65843
     77       0.00000           0.179095            4.87343
     78       0.00000           0.180609            4.91463
     79       0.00000           0.190978            5.19678
     80       0.00000           0.201966            5.49577
     81       0.00000           0.203304            5.53219
     82       0.00000           0.222160            6.04528
     83       0.00000           0.227619            6.19382
     84       0.00000           0.230345            6.26801
     85       0.00000           0.239923            6.52863
     86       0.00000           0.258197            7.02589
     87       0.00000           0.270472            7.35992
     88       0.00000           0.273949            7.45454
     89       0.00000           0.282125            7.67701
     90       0.00000           0.294923            8.02527
     91       0.00000           0.305196            8.30480
     92       0.00000           0.324144            8.82039
     93       0.00000           0.347734            9.46232
     94       0.00000           0.353780            9.62685
     95       0.00000           0.361921            9.84837
     96       0.00000           0.374368           10.18706

  Highest occupied state (VBM) at    -11.62009801 eV
  | Occupation number:      2.00000000

  Lowest unoccupied state (CBM) at    -3.97086439 eV
  | Occupation number:      0.00000000

  Overall HOMO-LUMO gap:      7.64923362 eV.
  Calculating total energy contributions from superposition of free atom densities.

  Total energy components:
  | Sum of eigenvalues            :        -888.71684542 Ha      -24183.21579234 eV
  | XC energy correction          :        -144.40835225 Ha       -3929.55119819 eV
  | XC potential correction       :         188.03208231 Ha        5116.61329019 eV
  | Free-atom electrostatic energy:        -780.18274510 Ha      -21229.85265730 eV
  | Hartree energy correction     :           0.00000000 Ha           0.00000000 eV
  | Entropy correction            :           0.00000000 Ha           0.00000000 eV
  | ---------------------------
  | Total energy                  :       -1625.27586046 Ha      -44226.00635764 eV
  | Total energy, T -> 0          :       -1625.27586046 Ha      -44226.00635764 eV  <-- do not rely on this value for anything but (periodic) metals
  | Electronic free energy        :       -1625.27586046 Ha      -44226.00635764 eV

  Derived energy quantities:
  | Kinetic energy                :        1627.92561936 Ha       44298.10996594 eV
  | Electrostatic energy          :       -3108.79312757 Ha      -84594.56512539 eV
  | Energy correction for multipole
  | error in Hartree potential    :           0.00000000 Ha           0.00000000 eV
  | Sum of eigenvalues per atom                           :       -2015.26798270 eV
  | Total energy (T->0) per atom                          :       -3685.50052980 eV  <-- do not rely on this value for anything but (periodic) metals
  | Electronic free energy per atom                       :       -3685.50052980 eV
  Initialize hartree_potential_storage
  Max. number of atoms included in rho_multipole:           12

  End scf initialization - timings             :  max(cpu_time)    wall_clock(cpu1)
  | Time for scf. initialization                :        0.108 s           0.109 s
  | Boundary condition initialization           :        0.000 s           0.000 s
  | Integration                                 :        0.043 s           0.043 s
  | Solution of K.-S. eqns.                     :        0.011 s           0.011 s
  | Grid partitioning                           :        0.032 s           0.032 s
  | Preloading free-atom quantities on grid     :        0.015 s           0.015 s
  | Free-atom superposition energy              :        0.005 s           0.005 s
  | Total energy evaluation                     :        0.000 s           0.000 s

  Partial memory accounting:
  | Current value for overall tracked memory usage:
  |   Minimum:        0.273 MB (on task 23)
  |   Maximum:        0.292 MB (on task  0)
  |   Average:        0.287 MB
  | Peak value for overall tracked memory usage:
  |   Minimum:        1.322 MB (on task 23 after allocating wave)
  |   Maximum:        1.383 MB (on task  8 after allocating wave)
  |   Average:        1.356 MB
  | Largest tracked array allocation so far:
  |   Minimum:        0.241 MB (H_times_psi on task  5)
  |   Maximum:        0.418 MB (all_coords on task 10)
  |   Average:        0.270 MB
  Note:  These values currently only include a subset of arrays which are explicitly tracked.
  The "true" memory usage will be greater.
------------------------------------------------------------
  Evaluating new KS density.
  Integration grid: deviation in total charge (<rho> - N_e) =   2.842171E-14

  Time for density update prior                :  max(cpu_time)    wall_clock(cpu1)
  | self-consistency iterative process          :        0.027 s           0.027 s

------------------------------------------------------------
          Begin self-consistency iteration #    1

  Date     :  20220517, Time     :  111232.966
------------------------------------------------------------
  Pulay mixing of updated and previous charge densities.
  Renormalizing the density to the exact electron count on the 3D integration grid.
  | Formal number of electrons (from input files) :     120.0000000000
  | Integrated number of electrons on 3D grid     :     120.0000000000
  | Charge integration error                      :      -0.0000000000
  | Normalization factor for density and gradient :       1.0000000000

  Evaluating partitioned Hartree potential by multipole expansion.
  | Original multipole sum: apparent total charge =  -0.434888E-13
  | Sum of charges compensated after spline to logarithmic grids =   0.105634E-03
  | Analytical far-field extrapolation by fixed multipoles:
  | Hartree multipole sum: apparent total charge =  -0.430460E-13
  Summing up the Hartree potential.
  Time summed over all CPUs for potential: real work        0.381 s, elapsed        0.396 s
  | RMS charge density error from multipole expansion :   0.119485E-01

  Integrating Hamiltonian matrix: batch-based integration.
  Time summed over all CPUs for integration: real work        0.635 s, elapsed        0.666 s

  Updating Kohn-Sham eigenvalues and eigenvectors using ELSI and the ELPA eigensolver.
  Starting ELPA eigensolver
  Finished transformation to standard eigenproblem
  | Time :     0.001 s
  Finished solving standard eigenproblem
  | Time :     0.003 s
  Finished back-transformation of eigenvectors
  | Time :     0.000 s

  Obtaining occupation numbers and chemical potential using ELSI.
  | Chemical potential (Fermi level):    -4.68408085 eV
  Writing Kohn-Sham eigenvalues.

  State    Occupation    Eigenvalue [Ha]    Eigenvalue [eV]
      1       2.00000         -55.661471        -1514.62570
      2       2.00000         -55.641875        -1514.09246
      3       2.00000         -55.612565        -1513.29489
      4       2.00000         -24.269796         -660.41476
      5       2.00000         -24.269796         -660.41475
      6       2.00000         -24.167715         -657.63699
      7       2.00000         -24.167711         -657.63688
      8       2.00000         -24.146218         -657.05202
      9       2.00000         -24.145559         -657.03410
     10       2.00000         -24.061811         -654.75518
     11       2.00000         -23.997574         -653.00720
     12       2.00000         -23.997547         -653.00649
     13       2.00000          -4.109123         -111.81492
     14       2.00000          -4.093679         -111.39468
     15       2.00000          -4.051992         -110.26032
     16       2.00000          -2.702642          -73.54263
     17       2.00000          -2.701245          -73.50463
     18       2.00000          -2.701229          -73.50417
     19       2.00000          -2.688168          -73.14876
     20       2.00000          -2.686585          -73.10570
     21       2.00000          -2.684212          -73.04112
     22       2.00000          -2.645534          -71.98864
     23       2.00000          -2.645011          -71.97442
     24       2.00000          -2.643415          -71.93097
     25       2.00000          -1.224656          -33.32458
     26       2.00000          -1.205075          -32.79175
     27       2.00000          -1.114655          -30.33131
     28       2.00000          -1.105161          -30.07296
     29       2.00000          -1.104405          -30.05238
     30       2.00000          -1.092554          -29.72991
     31       2.00000          -1.006639          -27.39204
     32       2.00000          -0.941777          -25.62706
     33       2.00000          -0.939619          -25.56834
     34       2.00000          -0.582633          -15.85425
     35       2.00000          -0.570661          -15.52848
     36       2.00000          -0.545978          -14.85681
     37       2.00000          -0.521464          -14.18975
     38       2.00000          -0.501812          -13.65500
     39       2.00000          -0.491685          -13.37943
     40       2.00000          -0.479753          -13.05473
     41       2.00000          -0.472595          -12.85996
     42       2.00000          -0.443749          -12.07502
     43       2.00000          -0.440776          -11.99412
     44       2.00000          -0.434468          -11.82247
     45       2.00000          -0.417248          -11.35390
     46       2.00000          -0.415017          -11.29318
     47       2.00000          -0.410827          -11.17918
     48       2.00000          -0.403206          -10.97179
     49       2.00000          -0.399588          -10.87335
     50       2.00000          -0.394661          -10.73927
     51       2.00000          -0.390802          -10.63428
     52       2.00000          -0.368108          -10.01672
     53       2.00000          -0.325027           -8.84444
     54       2.00000          -0.317689           -8.64476
     55       2.00000          -0.315935           -8.59704
     56       2.00000          -0.294583           -8.01600
     57       2.00000          -0.264270           -7.19116
     58       2.00000          -0.261243           -7.10879
     59       2.00000          -0.255308           -6.94727
     60       2.00000          -0.252786           -6.87865
     61       0.00000          -0.169704           -4.61789
     62       0.00000          -0.112633           -3.06489
     63       0.00000          -0.063124           -1.71770
     64       0.00000          -0.062380           -1.69746
     65       0.00000          -0.054624           -1.48640
     66       0.00000          -0.027224           -0.74080
     67       0.00000           0.019584            0.53291
     68       0.00000           0.019767            0.53788
     69       0.00000           0.048662            1.32416
     70       0.00000           0.064337            1.75069
     71       0.00000           0.073042            1.98758
     72       0.00000           0.076247            2.07479
     73       0.00000           0.108067            2.94066
     74       0.00000           0.143375            3.90143
     75       0.00000           0.166029            4.51789
     76       0.00000           0.172699            4.69937
     77       0.00000           0.173956            4.73359
     78       0.00000           0.179453            4.88316
     79       0.00000           0.188353            5.12535
     80       0.00000           0.197395            5.37139
     81       0.00000           0.215731            5.87033
     82       0.00000           0.218483            5.94522
     83       0.00000           0.225103            6.12536
     84       0.00000           0.226485            6.16298
     85       0.00000           0.232725            6.33277
     86       0.00000           0.252475            6.87019
     87       0.00000           0.254376            6.92192
     88       0.00000           0.264863            7.20729
     89       0.00000           0.281208            7.65206
     90       0.00000           0.295562            8.04265
     91       0.00000           0.296894            8.07889
     92       0.00000           0.328366            8.93528
     93       0.00000           0.341226            9.28523
     94       0.00000           0.357234            9.72083
     95       0.00000           0.371089           10.09785
     96       0.00000           0.375095           10.20686

  Highest occupied state (VBM) at     -6.87865321 eV
  | Occupation number:      2.00000000

  Lowest unoccupied state (CBM) at    -4.61788734 eV
  | Occupation number:      0.00000000

  Overall HOMO-LUMO gap:      2.26076587 eV.

  Total energy components:
  | Sum of eigenvalues            :        -882.39777025 Ha      -24011.26500808 eV
  | XC energy correction          :        -145.84631149 Ha       -3968.68005974 eV
  | XC potential correction       :         189.92256586 Ha        5168.05596497 eV
  | Free-atom electrostatic energy:        -780.18274510 Ha      -21229.85265730 eV
  | Hartree energy correction     :          -6.52988117 Ha        -177.68710721 eV
  | Entropy correction            :          -0.00000000 Ha          -0.00000000 eV
  | ---------------------------
  | Total energy                  :       -1625.03414214 Ha      -44219.42886736 eV
  | Total energy, T -> 0          :       -1625.03414214 Ha      -44219.42886736 eV  <-- do not rely on this value for anything but (periodic) metals
  | Electronic free energy        :       -1625.03414214 Ha      -44219.42886736 eV

  Derived energy quantities:
  | Kinetic energy                :        1635.20613988 Ha       44496.22300901 eV
  | Electrostatic energy          :       -3114.39397053 Ha      -84746.97181663 eV
  | Energy correction for multipole
  | error in Hartree potential    :           0.04973921 Ha           1.35347275 eV
  | Sum of eigenvalues per atom                           :       -2000.93875067 eV
  | Total energy (T->0) per atom                          :       -3684.95240561 eV  <-- do not rely on this value for anything but (periodic) metals
  | Electronic free energy per atom                       :       -3684.95240561 eV
  Evaluating new KS density.
  Integration grid: deviation in total charge (<rho> - N_e) =   8.526513E-14

  Self-consistency convergence accuracy:
  | Change of charge density      :  0.6281E+00
  | Change of sum of eigenvalues  :  0.1720E+03 eV
  | Change of total energy        :  0.6577E+01 eV


------------------------------------------------------------
  End self-consistency iteration #     1       :  max(cpu_time)    wall_clock(cpu1)
  | Time for this iteration                     :        0.078 s           0.078 s
  | Charge density update                       :        0.026 s           0.026 s
  | Density mixing                              :        0.001 s           0.000 s
  | Hartree multipole update                    :        0.001 s           0.002 s
  | Hartree multipole summation                 :        0.017 s           0.017 s
  | Integration                                 :        0.028 s           0.028 s
  | Solution of K.-S. eqns.                     :        0.004 s           0.004 s
  | Total energy evaluation                     :        0.000 s           0.000 s

  Partial memory accounting:
  | Current value for overall tracked memory usage:
  |   Minimum:        0.273 MB (on task 23)
  |   Maximum:        0.292 MB (on task  0)
  |   Average:        0.287 MB
  | Peak value for overall tracked memory usage:
  |   Minimum:        1.322 MB (on task 23 after allocating wave)
  |   Maximum:        1.383 MB (on task  8 after allocating wave)
  |   Average:        1.356 MB
  | Largest tracked array allocation so far:
  |   Minimum:        0.723 MB (gradient_basis_wave on task  5)
  |   Maximum:        0.755 MB (gradient_basis_wave on task  8)
  |   Average:        0.741 MB
  Note:  These values currently only include a subset of arrays which are explicitly tracked.
  The "true" memory usage will be greater.
------------------------------------------------------------

------------------------------------------------------------
          Begin self-consistency iteration #    2

  Date     :  20220517, Time     :  111233.049
------------------------------------------------------------
  Pulay mixing of updated and previous charge densities.
  Renormalizing the density to the exact electron count on the 3D integration grid.
  | Formal number of electrons (from input files) :     120.0000000000
  | Integrated number of electrons on 3D grid     :     120.0000000000
  | Charge integration error                      :       0.0000000000
  | Normalization factor for density and gradient :       1.0000000000

  Evaluating partitioned Hartree potential by multipole expansion.
  | Original multipole sum: apparent total charge =   0.738424E-13
  | Sum of charges compensated after spline to logarithmic grids =   0.647177E-04
  | Analytical far-field extrapolation by fixed multipoles:
  | Hartree multipole sum: apparent total charge =   0.736456E-13
  Summing up the Hartree potential.
  Time summed over all CPUs for potential: real work        0.379 s, elapsed        0.395 s
  | RMS charge density error from multipole expansion :   0.139957E-01

  Integrating Hamiltonian matrix: batch-based integration.
  Time summed over all CPUs for integration: real work        0.634 s, elapsed        0.670 s

  Updating Kohn-Sham eigenvalues and eigenvectors using ELSI and the ELPA eigensolver.
  Starting ELPA eigensolver
  Finished transformation to standard eigenproblem
  | Time :     0.000 s
  Finished solving standard eigenproblem
  | Time :     0.004 s
  Finished back-transformation of eigenvectors
  | Time :     0.000 s

  Obtaining occupation numbers and chemical potential using ELSI.
  | Chemical potential (Fermi level):    -7.78307558 eV
  Highest occupied state (VBM) at     -8.24120195 eV
  | Occupation number:      2.00000000

  Lowest unoccupied state (CBM) at    -4.88159308 eV
  | Occupation number:      0.00000000

  Overall HOMO-LUMO gap:      3.35960888 eV.

  Checking to see if s.c.f. parameters should be adjusted.

  Total energy components:
  | Sum of eigenvalues            :        -885.61659166 Ha      -24098.85359511 eV
  | XC energy correction          :        -145.33576533 Ha       -3954.78739197 eV
  | XC potential correction       :         189.25081268 Ha        5149.77663070 eV
  | Free-atom electrostatic energy:        -780.18274510 Ha      -21229.85265730 eV
  | Hartree energy correction     :          -3.07893502 Ha         -83.78208464 eV
  | Entropy correction            :           0.00000000 Ha           0.00000000 eV
  | ---------------------------
  | Total energy                  :       -1624.96322443 Ha      -44217.49909831 eV
  | Total energy, T -> 0          :       -1624.96322443 Ha      -44217.49909831 eV  <-- do not rely on this value for anything but (periodic) metals
  | Electronic free energy        :       -1624.96322443 Ha      -44217.49909831 eV

  Derived energy quantities:
  | Kinetic energy                :        1631.23906803 Ha       44388.27349149 eV
  | Electrostatic energy          :       -3110.86652713 Ha      -84650.98519783 eV
  | Energy correction for multipole
  | error in Hartree potential    :           0.05388619 Ha           1.46631773 eV
  | Sum of eigenvalues per atom                           :       -2008.23779959 eV
  | Total energy (T->0) per atom                          :       -3684.79159153 eV  <-- do not rely on this value for anything but (periodic) metals
  | Electronic free energy per atom                       :       -3684.79159153 eV
  Evaluating new KS density.
  Integration grid: deviation in total charge (<rho> - N_e) =   5.684342E-14

  Self-consistency convergence accuracy:
  | Change of charge density      :  0.4972E+00
  | Change of sum of eigenvalues  : -0.8759E+02 eV
  | Change of total energy        :  0.1930E+01 eV


------------------------------------------------------------
  End self-consistency iteration #     2       :  max(cpu_time)    wall_clock(cpu1)
  | Time for this iteration                     :        0.081 s           0.079 s
  | Charge density update                       :        0.026 s           0.026 s
  | Density mixing                              :        0.004 s           0.003 s
  | Hartree multipole update                    :        0.001 s           0.001 s
  | Hartree multipole summation                 :        0.017 s           0.017 s
  | Integration                                 :        0.028 s           0.028 s
  | Solution of K.-S. eqns.                     :        0.004 s           0.004 s
  | Total energy evaluation                     :        0.000 s           0.000 s

  Partial memory accounting:
  | Current value for overall tracked memory usage:
  |   Minimum:        0.274 MB (on task 23)
  |   Maximum:        0.293 MB (on task  0)
  |   Average:        0.288 MB
  | Peak value for overall tracked memory usage:
  |   Minimum:        1.322 MB (on task 23 after allocating wave)
  |   Maximum:        1.383 MB (on task  8 after allocating wave)
  |   Average:        1.356 MB
  | Largest tracked array allocation so far:
  |   Minimum:        0.723 MB (gradient_basis_wave on task  5)
  |   Maximum:        0.755 MB (gradient_basis_wave on task  8)
  |   Average:        0.741 MB
  Note:  These values currently only include a subset of arrays which are explicitly tracked.
  The "true" memory usage will be greater.
------------------------------------------------------------

------------------------------------------------------------
          Begin self-consistency iteration #    3

  Date     :  20220517, Time     :  111233.134
------------------------------------------------------------
  Pulay mixing of updated and previous charge densities.
  Renormalizing the density to the exact electron count on the 3D integration grid.
  | Formal number of electrons (from input files) :     120.0000000000
  | Integrated number of electrons on 3D grid     :     120.0000000000
  | Charge integration error                      :       0.0000000000
  | Normalization factor for density and gradient :       1.0000000000

  Evaluating partitioned Hartree potential by multipole expansion.
  | Original multipole sum: apparent total charge =   0.344368E-15
  | Sum of charges compensated after spline to logarithmic grids =   0.816816E-04
  | Analytical far-field extrapolation by fixed multipoles:
  | Hartree multipole sum: apparent total charge =   0.590346E-15
  Summing up the Hartree potential.
  Time summed over all CPUs for potential: real work        0.379 s, elapsed        0.395 s
  | RMS charge density error from multipole expansion :   0.183632E-01

  Integrating Hamiltonian matrix: batch-based integration.
  Time summed over all CPUs for integration: real work        0.634 s, elapsed        0.668 s

  Updating Kohn-Sham eigenvalues and eigenvectors using ELSI and the ELPA eigensolver.
  Starting ELPA eigensolver
  Finished transformation to standard eigenproblem
  | Time :     0.000 s
  Finished solving standard eigenproblem
  | Time :     0.003 s
  Finished back-transformation of eigenvectors
  | Time :     0.000 s

  Obtaining occupation numbers and chemical potential using ELSI.
  | Chemical potential (Fermi level):    -6.37099843 eV
  Highest occupied state (VBM) at     -7.42252945 eV
  | Occupation number:      2.00000000

  Lowest unoccupied state (CBM) at    -5.21295843 eV
  | Occupation number:      0.00000000

  Overall HOMO-LUMO gap:      2.20957102 eV.

  Total energy components:
  | Sum of eigenvalues            :        -886.44291671 Ha      -24121.33904402 eV
  | XC energy correction          :        -145.31715578 Ha       -3954.28100051 eV
  | XC potential correction       :         189.22533708 Ha        5149.08340443 eV
  | Free-atom electrostatic energy:        -780.18274510 Ha      -21229.85265730 eV
  | Hartree energy correction     :          -2.24357528 Ha         -61.05078955 eV
  | Entropy correction            :           0.00000000 Ha           0.00000000 eV
  | ---------------------------
  | Total energy                  :       -1624.96105580 Ha      -44217.44008695 eV
  | Total energy, T -> 0          :       -1624.96105580 Ha      -44217.44008695 eV  <-- do not rely on this value for anything but (periodic) metals
  | Electronic free energy        :       -1624.96105580 Ha      -44217.44008695 eV

  Derived energy quantities:
  | Kinetic energy                :        1629.88359849 Ha       44351.38928882 eV
  | Electrostatic energy          :       -3109.52749851 Ha      -84614.54837525 eV
  | Energy correction for multipole
  | error in Hartree potential    :           0.06799806 Ha           1.85032125 eV
  | Sum of eigenvalues per atom                           :       -2010.11158700 eV
  | Total energy (T->0) per atom                          :       -3684.78667391 eV  <-- do not rely on this value for anything but (periodic) metals
  | Electronic free energy per atom                       :       -3684.78667391 eV
  Evaluating new KS density.
  Integration grid: deviation in total charge (<rho> - N_e) =   4.263256E-14

  Self-consistency convergence accuracy:
  | Change of charge density      :  0.1253E+00
  | Change of sum of eigenvalues  : -0.2249E+02 eV
  | Change of total energy        :  0.5901E-01 eV


------------------------------------------------------------
  End self-consistency iteration #     3       :  max(cpu_time)    wall_clock(cpu1)
  | Time for this iteration                     :        0.080 s           0.078 s
  | Charge density update                       :        0.026 s           0.026 s
  | Density mixing                              :        0.004 s           0.002 s
  | Hartree multipole update                    :        0.001 s           0.001 s
  | Hartree multipole summation                 :        0.017 s           0.017 s
  | Integration                                 :        0.028 s           0.028 s
  | Solution of K.-S. eqns.                     :        0.004 s           0.004 s
  | Total energy evaluation                     :        0.000 s           0.000 s

  Partial memory accounting:
  | Current value for overall tracked memory usage:
  |   Minimum:        0.274 MB (on task 23)
  |   Maximum:        0.293 MB (on task  0)
  |   Average:        0.288 MB
  | Peak value for overall tracked memory usage:
  |   Minimum:        1.322 MB (on task 23 after allocating wave)
  |   Maximum:        1.383 MB (on task  8 after allocating wave)
  |   Average:        1.356 MB
  | Largest tracked array allocation so far:
  |   Minimum:        0.723 MB (gradient_basis_wave on task  5)
  |   Maximum:        0.755 MB (gradient_basis_wave on task  8)
  |   Average:        0.741 MB
  Note:  These values currently only include a subset of arrays which are explicitly tracked.
  The "true" memory usage will be greater.
------------------------------------------------------------

------------------------------------------------------------
          Begin self-consistency iteration #    4

  Date     :  20220517, Time     :  111233.218
------------------------------------------------------------
  Pulay mixing of updated and previous charge densities.
  Renormalizing the density to the exact electron count on the 3D integration grid.
  | Formal number of electrons (from input files) :     120.0000000000
  | Integrated number of electrons on 3D grid     :     120.0000000000
  | Charge integration error                      :       0.0000000000
  | Normalization factor for density and gradient :       1.0000000000

  Evaluating partitioned Hartree potential by multipole expansion.
  | Original multipole sum: apparent total charge =  -0.227775E-13
  | Sum of charges compensated after spline to logarithmic grids =   0.897297E-04
  | Analytical far-field extrapolation by fixed multipoles:
  | Hartree multipole sum: apparent total charge =  -0.209573E-13
  Summing up the Hartree potential.
  Time summed over all CPUs for potential: real work        0.379 s, elapsed        0.399 s
  | RMS charge density error from multipole expansion :   0.213584E-01

  Integrating Hamiltonian matrix: batch-based integration.
  Time summed over all CPUs for integration: real work        0.634 s, elapsed        0.669 s

  Updating Kohn-Sham eigenvalues and eigenvectors using ELSI and the ELPA eigensolver.
  Starting ELPA eigensolver
  Finished transformation to standard eigenproblem
  | Time :     0.001 s
  Finished solving standard eigenproblem
  | Time :     0.003 s
  Finished back-transformation of eigenvectors
  | Time :     0.000 s

  Obtaining occupation numbers and chemical potential using ELSI.
  | Chemical potential (Fermi level):    -6.44916599 eV
  Highest occupied state (VBM) at     -7.52072189 eV
  | Occupation number:      2.00000000

  Lowest unoccupied state (CBM) at    -5.28585993 eV
  | Occupation number:      0.00000000

  Overall HOMO-LUMO gap:      2.23486195 eV.

  Total energy components:
  | Sum of eigenvalues            :        -886.73978011 Ha      -24129.41710794 eV
  | XC energy correction          :        -145.29508942 Ha       -3953.68054423 eV
  | XC potential correction       :         189.19540731 Ha        5148.26897399 eV
  | Free-atom electrostatic energy:        -780.18274510 Ha      -21229.85265730 eV
  | Hartree energy correction     :          -1.93609301 Ha         -52.68377132 eV
  | Entropy correction            :           0.00000000 Ha           0.00000000 eV
  | ---------------------------
  | Total energy                  :       -1624.95830033 Ha      -44217.36510679 eV
  | Total energy, T -> 0          :       -1624.95830033 Ha      -44217.36510679 eV  <-- do not rely on this value for anything but (periodic) metals
  | Electronic free energy        :       -1624.95830033 Ha      -44217.36510679 eV

  Derived energy quantities:
  | Kinetic energy                :        1628.95959264 Ha       44326.24581016 eV
  | Electrostatic energy          :       -3108.62280354 Ha      -84589.93037272 eV
  | Energy correction for multipole
  | error in Hartree potential    :           0.07746318 Ha           2.10788032 eV
  | Sum of eigenvalues per atom                           :       -2010.78475899 eV
  | Total energy (T->0) per atom                          :       -3684.78042557 eV  <-- do not rely on this value for anything but (periodic) metals
  | Electronic free energy per atom                       :       -3684.78042557 eV
  Evaluating new KS density.
  Integration grid: deviation in total charge (<rho> - N_e) =  -2.842171E-14

  Self-consistency convergence accuracy:
  | Change of charge density      :  0.1012E+00
  | Change of sum of eigenvalues  : -0.8078E+01 eV
  | Change of total energy        :  0.7498E-01 eV


------------------------------------------------------------
  End self-consistency iteration #     4       :  max(cpu_time)    wall_clock(cpu1)
  | Time for this iteration                     :        0.081 s           0.078 s
  | Charge density update                       :        0.026 s           0.025 s
  | Density mixing                              :        0.004 s           0.002 s
  | Hartree multipole update                    :        0.001 s           0.001 s
  | Hartree multipole summation                 :        0.017 s           0.017 s
  | Integration                                 :        0.028 s           0.028 s
  | Solution of K.-S. eqns.                     :        0.004 s           0.004 s
  | Total energy evaluation                     :        0.000 s           0.000 s

  Partial memory accounting:
  | Current value for overall tracked memory usage:
  |   Minimum:        0.274 MB (on task 23)
  |   Maximum:        0.293 MB (on task  0)
  |   Average:        0.288 MB
  | Peak value for overall tracked memory usage:
  |   Minimum:        1.322 MB (on task 23 after allocating wave)
  |   Maximum:        1.383 MB (on task  8 after allocating wave)
  |   Average:        1.356 MB
  | Largest tracked array allocation so far:
  |   Minimum:        0.723 MB (gradient_basis_wave on task  5)
  |   Maximum:        0.755 MB (gradient_basis_wave on task  8)
  |   Average:        0.741 MB
  Note:  These values currently only include a subset of arrays which are explicitly tracked.
  The "true" memory usage will be greater.
------------------------------------------------------------

------------------------------------------------------------
          Begin self-consistency iteration #    5

  Date     :  20220517, Time     :  111233.302
------------------------------------------------------------
  Pulay mixing of updated and previous charge densities.
  Renormalizing the density to the exact electron count on the 3D integration grid.
  | Formal number of electrons (from input files) :     120.0000000000
  | Integrated number of electrons on 3D grid     :     120.0000000000
  | Charge integration error                      :       0.0000000000
  | Normalization factor for density and gradient :       1.0000000000

  Evaluating partitioned Hartree potential by multipole expansion.
  | Original multipole sum: apparent total charge =   0.801886E-14
  | Sum of charges compensated after spline to logarithmic grids =   0.903547E-04
  | Analytical far-field extrapolation by fixed multipoles:
  | Hartree multipole sum: apparent total charge =   0.102327E-13
  Summing up the Hartree potential.
  Time summed over all CPUs for potential: real work        0.379 s, elapsed        0.395 s
  | RMS charge density error from multipole expansion :   0.212399E-01

  Integrating Hamiltonian matrix: batch-based integration.
  Time summed over all CPUs for integration: real work        0.634 s, elapsed        0.667 s

  Updating Kohn-Sham eigenvalues and eigenvectors using ELSI and the ELPA eigensolver.
  Starting ELPA eigensolver
  Finished transformation to standard eigenproblem
  | Time :     0.000 s
  Finished solving standard eigenproblem
  | Time :     0.003 s
  Finished back-transformation of eigenvectors
  | Time :     0.001 s

  Obtaining occupation numbers and chemical potential using ELSI.
  | Chemical potential (Fermi level):    -6.43355959 eV
  Highest occupied state (VBM) at     -7.59390708 eV
  | Occupation number:      2.00000000

  Lowest unoccupied state (CBM) at    -5.22237758 eV
  | Occupation number:      0.00000000

  Overall HOMO-LUMO gap:      2.37152950 eV.

  Total energy components:
  | Sum of eigenvalues            :        -886.62248843 Ha      -24126.22543904 eV
  | XC energy correction          :        -145.28792949 Ha       -3953.48571249 eV
  | XC potential correction       :         189.18610490 Ha        5148.01584255 eV
  | Free-atom electrostatic energy:        -780.18274510 Ha      -21229.85265730 eV
  | Hartree energy correction     :          -2.05103828 Ha         -55.81159113 eV
  | Entropy correction            :           0.00000000 Ha           0.00000000 eV
[...]
   Total forces(   7)            : -0.438015E+01  0.840271E+00 -0.273743E+01
  atom #    8
   Hellmann-Feynman              :  0.228522E+01  0.183960E+01  0.263353E+00
   Ionic forces                  :  0.000000E+00  0.000000E+00  0.000000E+00
   Multipole                     :  0.528467E+00  0.438814E+00  0.314034E-01
   Hartree pot. SCF incomplete   :  0.381023E-05  0.590654E-06  0.586307E-05
   Pulay + GGA                   : -0.574761E+01 -0.460606E+01 -0.710366E+00
   ----------------------------------------------------------------
   Total forces(   8)            : -0.293392E+01 -0.232764E+01 -0.415604E+00
  atom #    9
   Hellmann-Feynman              : -0.650929E+00 -0.477791E+01 -0.536361E+01
   Ionic forces                  :  0.000000E+00  0.000000E+00  0.000000E+00
   Multipole                     :  0.426340E+00 -0.621983E+00 -0.316385E+00
   Hartree pot. SCF incomplete   :  0.180206E-05 -0.165001E-05  0.414885E-06
   Pulay + GGA                   : -0.119092E+01  0.278002E+01  0.137670E+01
   ----------------------------------------------------------------
   Total forces(   9)            : -0.141551E+01 -0.261988E+01 -0.430330E+01
  atom #   10
   Hellmann-Feynman              : -0.127797E+01  0.193895E+01 -0.223397E+01
   Ionic forces                  :  0.000000E+00  0.000000E+00  0.000000E+00
   Multipole                     : -0.258261E+00  0.461572E+00 -0.814384E-01
   Hartree pot. SCF incomplete   :  0.386737E-05 -0.140275E-05  0.132945E-04
   Pulay + GGA                   :  0.228978E+01 -0.308163E+01  0.897606E+00
   ----------------------------------------------------------------
   Total forces(  10)            :  0.753550E+00 -0.681109E+00 -0.141779E+01
  atom #   11
   Hellmann-Feynman              :  0.143360E+01  0.596656E+00  0.139746E+01
   Ionic forces                  :  0.000000E+00  0.000000E+00  0.000000E+00
   Multipole                     :  0.318562E+00  0.149550E+00  0.272507E+00
   Hartree pot. SCF incomplete   :  0.352306E-05  0.180678E-05  0.267650E-05
   Pulay + GGA                   : -0.452380E+01 -0.182867E+01 -0.452379E+01
   ----------------------------------------------------------------
   Total forces(  11)            : -0.277164E+01 -0.108246E+01 -0.285382E+01
  atom #   12
   Hellmann-Feynman              : -0.146566E+01 -0.139819E+01  0.312352E+00
   Ionic forces                  :  0.000000E+00  0.000000E+00  0.000000E+00
   Multipole                     : -0.253290E+00 -0.241501E+00  0.537746E-01
   Hartree pot. SCF incomplete   : -0.247620E-05 -0.341118E-05  0.283436E-05
   Pulay + GGA                   :  0.438823E+01  0.445118E+01 -0.151824E+01
   ----------------------------------------------------------------
   Total forces(  12)            :  0.266928E+01  0.281148E+01 -0.115211E+01


  Self-consistency convergence accuracy:
  | Change of charge density      :  0.5311E-06
  | Change of sum of eigenvalues  : -0.7361E-04 eV
  | Change of total energy        :  0.4436E-08 eV
  | Change of forces              :  0.3159E-05 eV/A

  Writing Kohn-Sham eigenvalues.

  State    Occupation    Eigenvalue [Ha]    Eigenvalue [eV]
      1       2.00000         -55.653054        -1514.39664
      2       2.00000         -55.623916        -1513.60376
      3       2.00000         -55.573856        -1512.24157
      4       2.00000         -24.350869         -662.62085
      5       2.00000         -24.350862         -662.62066
      6       2.00000         -24.285439         -660.84043
      7       2.00000         -24.282374         -660.75703
      8       2.00000         -24.252135         -659.93416
      9       2.00000         -24.252127         -659.93395
     10       2.00000         -24.206848         -658.70186
     11       2.00000         -24.144473         -657.00455
     12       2.00000         -24.141865         -656.93356
     13       2.00000          -4.119604         -112.10013
     14       2.00000          -4.093079         -111.37834
     15       2.00000          -4.026771         -109.57403
     16       2.00000          -2.712536          -73.81186
     17       2.00000          -2.711927          -73.79529
     18       2.00000          -2.707908          -73.68593
     19       2.00000          -2.686350          -73.09931
     20       2.00000          -2.684713          -73.05477
     21       2.00000          -2.682022          -72.98153
     22       2.00000          -2.619560          -71.28185
     23       2.00000          -2.618956          -71.26543
     24       2.00000          -2.616568          -71.20044
     25       2.00000          -1.256008          -34.17771
     26       2.00000          -1.237636          -33.67779
     27       2.00000          -1.167003          -31.75576
     28       2.00000          -1.158932          -31.53615
     29       2.00000          -1.121006          -30.50414
     30       2.00000          -1.110168          -30.20921
     31       2.00000          -1.049382          -28.55513
     32       2.00000          -0.972055          -26.45096
     33       2.00000          -0.970172          -26.39973
     34       2.00000          -0.614284          -16.71552
     35       2.00000          -0.601192          -16.35927
     36       2.00000          -0.578256          -15.73514
     37       2.00000          -0.551383          -15.00388
     38       2.00000          -0.536497          -14.59884
     39       2.00000          -0.525024          -14.28662
     40       2.00000          -0.521546          -14.19199
     41       2.00000          -0.495595          -13.48582
     42       2.00000          -0.491418          -13.37216
     43       2.00000          -0.469310          -12.77056
     44       2.00000          -0.466695          -12.69942
     45       2.00000          -0.458575          -12.47845
     46       2.00000          -0.456730          -12.42825
     47       2.00000          -0.452859          -12.32291
     48       2.00000          -0.450544          -12.25993
     49       2.00000          -0.424965          -11.56389
     50       2.00000          -0.415121          -11.29601
     51       2.00000          -0.407075          -11.07709
     52       2.00000          -0.406043          -11.04898
     53       2.00000          -0.357311           -9.72293
     54       2.00000          -0.354785           -9.65420
     55       2.00000          -0.344580           -9.37650
     56       2.00000          -0.322558           -8.77725
     57       2.00000          -0.288196           -7.84221
     58       2.00000          -0.285615           -7.77198
     59       2.00000          -0.281397           -7.65720
     60       2.00000          -0.279365           -7.60192
     61       0.00000          -0.191190           -5.20254
     62       0.00000          -0.124081           -3.37642
     63       0.00000          -0.082294           -2.23933
     64       0.00000          -0.078025           -2.12316
     65       0.00000          -0.058154           -1.58244
     66       0.00000          -0.040313           -1.09698
     67       0.00000           0.015324            0.41699
     68       0.00000           0.025904            0.70489
     69       0.00000           0.038033            1.03492
     70       0.00000           0.065175            1.77350
     71       0.00000           0.069619            1.89444
     72       0.00000           0.076621            2.08496
     73       0.00000           0.094762            2.57860
     74       0.00000           0.130472            3.55032
     75       0.00000           0.147815            4.02224
     76       0.00000           0.156675            4.26334
     77       0.00000           0.159594            4.34277
     78       0.00000           0.162599            4.42453
     79       0.00000           0.172216            4.68623
     80       0.00000           0.197236            5.36706
     81       0.00000           0.205176            5.58312
     82       0.00000           0.215470            5.86323
     83       0.00000           0.227589            6.19300
     84       0.00000           0.227919            6.20199
     85       0.00000           0.229705            6.25060
     86       0.00000           0.245626            6.68383
     87       0.00000           0.250597            6.81909
     88       0.00000           0.261047            7.10345
     89       0.00000           0.279562            7.60727
     90       0.00000           0.288608            7.85342
     91       0.00000           0.296795            8.07621
     92       0.00000           0.322091            8.76453
     93       0.00000           0.332264            9.04137
     94       0.00000           0.348732            9.48948
     95       0.00000           0.365324            9.94097
     96       0.00000           0.365637            9.94949

  Highest occupied state (VBM) at     -7.60191990 eV
  | Occupation number:      2.00000000

  Lowest unoccupied state (CBM) at    -5.20253937 eV
  | Occupation number:      0.00000000

  Overall HOMO-LUMO gap:      2.39938053 eV.
  | Chemical Potential                          :    -6.42531959 eV

  Self-consistency cycle converged.


------------------------------------------------------------
  End self-consistency iteration #    14       :  max(cpu_time)    wall_clock(cpu1)
  | Time for this iteration                     :        0.259 s           0.258 s
  | Charge density & force component update     :        0.137 s           0.137 s
  | Density mixing                              :        0.005 s           0.003 s
  | Hartree multipole update                    :        0.001 s           0.001 s
  | Hartree multipole summation                 :        0.050 s           0.050 s
  | Hartree pot. SCF incomplete forces          :        0.033 s           0.033 s
  | Integration                                 :        0.028 s           0.028 s
  | Solution of K.-S. eqns.                     :        0.004 s           0.004 s
  | Total energy evaluation                     :        0.000 s           0.001 s

  Partial memory accounting:
  | Current value for overall tracked memory usage:
  |   Minimum:        0.274 MB (on task 23)
  |   Maximum:        0.293 MB (on task  0)
  |   Average:        0.289 MB
  | Peak value for overall tracked memory usage:
  |   Minimum:        2.975 MB (on task 23 after allocating hessian_basis_wave)
  |   Maximum:        3.085 MB (on task  8 after allocating hessian_basis_wave)
  |   Average:        3.032 MB
  | Largest tracked array allocation so far:
  |   Minimum:        1.447 MB (hessian_basis_wave on task  5)
  |   Maximum:        1.511 MB (hessian_basis_wave on task  8)
  |   Average:        1.481 MB
  Note:  These values currently only include a subset of arrays which are explicitly tracked.
  The "true" memory usage will be greater.
------------------------------------------------------------
  Removing unitary transformations (pure translations, rotations) from forces on atoms.
  Atomic forces before filtering:
  | Net force on center of mass :   0.734637E-02 -0.391565E-02  0.143882E-01 eV/A
  | Net torque on center of mass:   0.173189E-02 -0.159504E-01 -0.115936E-01 eV
  Atomic forces after filtering:
  | Net force on center of mass :   0.107044E-14  0.356812E-15 -0.410334E-14 eV/A
  | Net torque on center of mass:   0.000000E+00 -0.377634E-14  0.226580E-14 eV

  Energy and forces in a compact form:
  | Total energy uncorrected      :         -0.442173591868813E+05 eV
  | Total energy corrected        :         -0.442173591868813E+05 eV  <-- do not rely on this value for anything but (periodic) metals
  | Electronic free energy        :         -0.442173591868813E+05 eV
  Total atomic forces (unitary forces cleaned) [eV/Ang]:
  |    1          0.283284583551175E+00         -0.189976356913818E+01          0.472694309875518E+01
  |    2          0.877452892054925E+01          0.377566945124898E+01          0.826763034997777E+01
  |    3          0.887000291093355E+00          0.500205041530805E+00          0.568488432362709E+00
  |    4         -0.123188782351001E+01         -0.120158814365856E+01          0.324299496759611E+00
  |    5         -0.987639612495784E+00          0.134844834306731E+01         -0.498652796034428E+00
  |    6          0.356170310389663E+00          0.534060716269411E+00         -0.501199904539240E+00
  |    7         -0.438129026045675E+01          0.840288484569885E+00         -0.273838441674744E+01
  |    8         -0.293516982971339E+01         -0.232667356380929E+01         -0.417006114866991E+00
  |    9         -0.141616152130083E+01         -0.261928094757179E+01         -0.430462101531984E+01
  |   10          0.752948280840762E+00         -0.681005345282407E+00         -0.141888154034369E+01
  |   11         -0.277161105149420E+01         -0.108171106834014E+01         -0.285533472990220E+01
  |   12          0.266982771254676E+01          0.281135060111398E+01         -0.115328086010144E+01

  ------------------------------------ 
  Start decomposition of the XC Energy 
  ------------------------------------ 
  X and C from original XC functional choice 
  Hartree-Fock Energy :          0.000000000 Ha              0.000000000 eV
  X Energy            :       -140.341029323 Ha          -3818.873710042 eV
  C Energy            :         -4.949859201 Ha           -134.692521943 eV
  Total XC Energy     :       -145.290888524 Ha          -3953.566231985 eV
  ------------------------------------ 
  LDA X and C from self-consistent density 
  X Energy LDA        :       -132.920127714 Ha          -3616.940703005 eV
  C Energy LDA        :         -8.830330136 Ha           -240.285508586 eV
  ------------------------------------ 
  End decomposition of the XC Energy 
  ------------------------------------ 

------------------------------------------------------------

------------------------------------------------------------------------------
  Final output of selected total energy values:

  The following output summarizes some interesting total energy values
  at the end of a run (AFTER all relaxation, molecular dynamics, etc.).

  | Total energy of the DFT / Hartree-Fock s.c.f. calculation      :         -44217.359186881 eV
  | Final zero-broadening corrected energy (caution - metals only) :         -44217.359186881 eV
  | For reference only, the value of 1 Hartree used in FHI-aims is :             27.211384500 eV

  Before relying on these values, please be sure to understand exactly which
  total energy value is referred to by a given number. Different objects may
  all carry the same name 'total energy'. Definitions:

  Total energy of the DFT / Hartree-Fock s.c.f. calculation:
  | Note that this energy does not include ANY quantities calculated after the
  | s.c.f. cycle, in particular not ANY RPA, MP2, etc. many-body perturbation terms.

  Final zero-broadening corrected energy:
  | For metallic systems only, a broadening of the occupation numbers at the Fermi
  | level can be extrapolated back to zero broadening by an electron-gas inspired
  | formula. For all systems that are not real metals, this value can be
  | meaningless and should be avoided.

------------------------------------------------------------------------------
  Methods described in the following list of references were used in this FHI-aims run.
  If you publish the results, please make sure to cite these reference if they apply.
  FHI-aims is an academic code, and for our developers (often, Ph.D. students
  and postdocs), scientific credit in the community is essential.
  Thank you for helping us!

  For any use of FHI-aims, please cite:

    Volker Blum, Ralf Gehrke, Felix Hanke, Paula Havu, Ville Havu,
    Xinguo Ren, Karsten Reuter, and Matthias Scheffler
    'Ab initio molecular simulations with numeric atom-centered orbitals'
    Computer Physics Communications 180, 2175-2196 (2009)
    http://dx.doi.org/10.1016/j.cpc.2009.06.022


  The ELSI infrastructure was used in your run to solve the Kohn-Sham electronic structure.
  Please check out http://elsi-interchange.org to learn more.
  If scalability is important for your project, please acknowledge ELSI by citing:

    V. W-z. Yu, F. Corsetti, A. Garcia, W. P. Huhn, M. Jacquelin, W. Jia,
    B. Lange, L. Lin, J. Lu, W. Mi, A. Seifitokaldani, A. Vazquez-Mayagoitia,
    C. Yang, H. Yang, and V. Blum
    'ELSI: A unified software interface for Kohn-Sham electronic structure solvers'
    Computer Physics Communications 222, 267-285 (2018).
    http://dx.doi.org/10.1016/j.cpc.2017.09.007


  For the real-space grid partitioning and parallelization used in this calculation, please cite:

    Ville Havu, Volker Blum, Paula Havu, and Matthias Scheffler,
    'Efficient O(N) integration for all-electron electronic structure calculation'
    'using numerically tabulated basis functions'
    Journal of Computational Physics 228, 8367-8379 (2009).
    http://dx.doi.org/10.1016/j.jcp.2009.08.008

  Of course, there are many other important community references, e.g., those cited in the
  above references. Our list is limited to references that describe implementations in the
  FHI-aims code. The reason is purely practical (length of this list) - please credit others as well.

------------------------------------------------------------
          Leaving FHI-aims.
          Date     :  20220517, Time     :  111234.518

          Computational steps:
          | Number of self-consistency cycles          :           14
          | Number of SCF (re)initializations          :            1

          Detailed time accounting                     :  max(cpu_time)    wall_clock(cpu1)
          | Total time                                  :        1.849 s           1.919 s
          | Preparation time                            :        0.184 s           0.184 s
          | Boundary condition initalization            :        0.000 s           0.000 s
          | Grid partitioning                           :        0.032 s           0.032 s
          | Preloading free-atom quantities on grid     :        0.015 s           0.015 s
          | Free-atom superposition energy              :        0.005 s           0.005 s
          | Total time for integrations                 :        0.438 s           0.435 s
          | Total time for solution of K.-S. equations  :        0.067 s           0.067 s
          | Total time for density & force components   :        0.611 s           0.610 s
          | Total time for mixing                       :        0.061 s           0.039 s
          | Total time for Hartree multipole update     :        0.018 s           0.016 s
          | Total time for Hartree multipole sum        :        0.302 s           0.304 s
          | Total time for total energy evaluation      :        0.002 s           0.003 s
          | Total time NSC force correction             :        0.067 s           0.067 s
          | Total time for scaled ZORA corrections      :        0.000 s           0.000 s

          Partial memory accounting:
          | Residual value for overall tracked memory usage across tasks:     0.000000 MB (should be 0.000000 MB)
          | Peak values for overall tracked memory usage:
          |   Minimum:        2.975 MB (on task 23 after allocating hessian_basis_wave)
          |   Maximum:        3.085 MB (on task  8 after allocating hessian_basis_wave)
          |   Average:        3.032 MB
          | Largest tracked array allocation:
          |   Minimum:        1.447 MB (hessian_basis_wave on task  5)
          |   Maximum:        1.511 MB (hessian_basis_wave on task  8)
          |   Average:        1.481 MB
          Note:  These values currently only include a subset of arrays which are explicitly tracked.
          The "true" memory usage will be greater.

          Have a nice day.
------------------------------------------------------------
