********************************************************************************
*                       GENERAL UTILITY LATTICE PROGRAM                        *
*                                 Julian Gale                                  *
*                       Curtin Institute for Computation                       *
*                           Department of Chemistry                            *
*                    Curtin University, Western Australia                      *
********************************************************************************
* Version = 5.1.1 * Last modified =  24th November 2018                        *
********************************************************************************
*  optimise     - perform optimisation run                                     *
*  conp         - constant pressure calculation                                *
*  shell        - only shells and radii to be optimised                        *
*  phonon       - calculate phonons for final geometry                         *
*  eigenvectors - output phonon eigenvectors                                   *
********************************************************************************

  Job Started  at 14:38.44 25th May        2022                               

  Number of CPUs =     1

  Host name      = login03                                 


  Total number of configurations input =      1

********************************************************************************
*  Input for Configuration =   1                                               *
********************************************************************************

  Formula = Al3F9                                                       

  Number of irreducible atoms/shells =      21


  Total number atoms/shells =      21

  Dimensionality = 0               :  Cluster


  Charge on cluster =  -0.000000


  Initial cluster dipoles : x =     -1.056993 e.Angs
                            y =      0.206399 e.Angs
                            z =     -2.454948 e.Angs

  Temperature of configuration =  0.000     K 

  Symmetry number =      1

  Cartesian coordinates of cluster :

--------------------------------------------------------------------------------
   No.  Atomic       x           y          z         Charge      Occupancy
        Label      (Angs)      (Angs)     (Angs)        (e)         (Frac)  
--------------------------------------------------------------------------------
      1 Al    c      1.2875      0.1101      2.3181     3.00000    1.000000    
      2 Al    c      1.1559      1.2486     -0.4429     3.00000    1.000000    
      3 Al    c     -0.4031      0.8135     -2.4319     3.00000    1.000000    
      4 F     c     -1.5512     -0.2640     -2.2267     0.59000    1.000000    
      5 F     c      2.0960     -0.4392      0.8633     0.59000    1.000000    
      6 F     c      0.0204      1.7425     -3.6805     0.59000    1.000000    
      7 F     c     -0.2548      1.9126     -0.6739     0.59000    1.000000    
      8 F     c      2.5900      2.4199     -0.3140     0.59000    1.000000    
      9 F     c      1.3082      0.0897     -1.5001     0.59000    1.000000    
     10 F     c      0.4154      1.5209      1.7517     0.59000    1.000000    
     11 F     c      2.6440      0.6386      3.7182     0.59000    1.000000    
     12 F     c     -0.0901     -1.3108      2.8470     0.59000    1.000000    
     13 F     s     -1.5512 *   -0.2640 *   -2.2267 *  -1.59000    1.000000    
     14 F     s      2.0960 *   -0.4392 *    0.8633 *  -1.59000    1.000000    
     15 F     s      0.0204 *    1.7425 *   -3.6805 *  -1.59000    1.000000    
     16 F     s     -0.2548 *    1.9126 *   -0.6739 *  -1.59000    1.000000    
     17 F     s      2.5900 *    2.4199 *   -0.3140 *  -1.59000    1.000000    
     18 F     s      1.3082 *    0.0897 *   -1.5001 *  -1.59000    1.000000    
     19 F     s      0.4154 *    1.5209 *    1.7517 *  -1.59000    1.000000    
     20 F     s      2.6440 *    0.6386 *    3.7182 *  -1.59000    1.000000    
     21 F     s     -0.0901 *   -1.3108 *    2.8470 *  -1.59000    1.000000    
--------------------------------------------------------------------------------


  Brillouin zone sampling points :

--------------------------------------------------------------------------------
  Point number          x          y          z            Weight
--------------------------------------------------------------------------------
        1           0.000000   0.000000   0.000000     1.00000000
--------------------------------------------------------------------------------


********************************************************************************
*  General input information                                                   *
********************************************************************************

  Species output for all configurations : 

--------------------------------------------------------------------------------
  Species    Type    Atomic    Atomic    Charge       Radii (Angs)     Library
                     Number     Mass       (e)     Cova   Ionic  VDW   Symbol
--------------------------------------------------------------------------------
    Al       Core       13      26.98   3.000000   1.350  0.000  2.050          
    F        Core        9      19.00   0.590000   0.710  0.000  1.300          
    F        Shell       9       0.00  -1.590000   0.710  0.000  1.300          
--------------------------------------------------------------------------------


  Accuracy factor for short range sums = 12.000

  Time limit = Infinity

  Maximum range for interatomic potentials =    100000.000000 Angstroms

  General interatomic potentials :

--------------------------------------------------------------------------------
Atom  Types   Potential      Parameter       Value         Units   Cutoffs(Ang)
  1     2                                                            Min /  Max 
--------------------------------------------------------------------------------
Al   c F    s Buckingham    Buckingham A     3760.0008    eV        0.000 10.000
                            Buckingham rho  0.22200000    Ang       
                            Buckingham C     0.0000000    eV*Ang^6  
--------------------------------------------------------------------------------
F    s F    s Buck 4 range  Buck4 A          1127.7000    eV        0.000 12.000
                            Buck4 rho       0.27530000    Ang       
                            Buck4 C          15.830000    eV*Ang^6  
                            Buck4 minimum    2.7900000    Ang       
--------------------------------------------------------------------------------
F    c F    s Spring (c-s)  Spring k 2       20.770000    eV*Ang^-2 0.000  0.800
                            Spring k 4       0.0000000    eV*Ang^-4 
--------------------------------------------------------------------------------

********************************************************************************
*  Output for configuration   1                                                *
********************************************************************************


  Components of energy : 

--------------------------------------------------------------------------------
  Interatomic potentials     =          16.84487675 eV    
  Monopole - monopole (real) =        -181.81003550 eV    
--------------------------------------------------------------------------------
  Total lattice energy       =        -164.96515875 eV    
--------------------------------------------------------------------------------
  Total lattice energy       =          -15916.6161 kJ/mol
--------------------------------------------------------------------------------


  Number of variables =       27

  Maximum number of calculations  =          2000
  Maximum Hessian update interval =            10
  Maximum step size               =   1.000000000
  Maximum parameter tolerance     =   0.000001000
  Maximum function  tolerance     =   0.000010000
  Maximum gradient  tolerance     =   0.000000010
  Maximum gradient  component     =   0.010000000

  Symmetry not applied to optimisation

  Newton-Raphson optimiser to be used

  BFGS hessian update to be used

  Lower half triangular hessian to be used

  Minimiser to switch to RFO
  When gradient norm is less than     0.010000

  Shell only optimisation

  Start of cluster optimisation :

  Cycle:      0 Energy:      -164.965159  Gnorm:      1.346173  CPU:    0.004
  ** Hessian calculated **
  Cycle:      1 Energy:      -179.505581  Gnorm:      0.635737  CPU:    0.005
  ** Hessian calculated **
  Cycle:      2 Energy:      -181.212677  Gnorm:      0.056289  CPU:    0.007
  Cycle:      3 Energy:      -181.229809  Gnorm:      0.011526  CPU:    0.009
  Cycle:      4 Energy:      -181.230645  Gnorm:      0.002163  CPU:    0.010
  ** Hessian has required structure
  Cycle:      5 Energy:      -181.230675  Gnorm:      0.000989  CPU:    0.012
  ** Hessian has required structure
  Cycle:      6 Energy:      -181.230680  Gnorm:      0.000382  CPU:    0.014
  ** Hessian has required structure
  Cycle:      7 Energy:      -181.230681  Gnorm:      0.000310  CPU:    0.015
  ** Hessian has required structure
  Cycle:      8 Energy:      -181.230681  Gnorm:      0.000123  CPU:    0.017
  ** Hessian has required structure
  Cycle:      9 Energy:      -181.230682  Gnorm:      0.000067  CPU:    0.018
  ** Hessian has required structure
  Cycle:     10 Energy:      -181.230682  Gnorm:      0.000035  CPU:    0.019
  ** Hessian has required structure
  Cycle:     11 Energy:      -181.230682  Gnorm:      0.000020  CPU:    0.021
  ** Hessian has required structure
  Cycle:     12 Energy:      -181.230682  Gnorm:      0.000000  CPU:    0.023
  ** Hessian has required structure

  XYZ File written as 001/5/sp_mod_-60/sp_mod_-60_eig.xyz



  **** Optimisation achieved ****


  Final energy =    -181.23068158 eV
  Final Gnorm  =       0.00000000

  Components of energy : 

--------------------------------------------------------------------------------
  Interatomic potentials     =          42.85726973 eV    
  Monopole - monopole (real) =        -224.08795131 eV    
--------------------------------------------------------------------------------
  Total lattice energy       =        -181.23068158 eV    
--------------------------------------------------------------------------------
  Total lattice energy       =          -17485.9904 kJ/mol
--------------------------------------------------------------------------------

  Final cartesian coordinates of atoms :

--------------------------------------------------------------------------------
   No.  Atomic        x           y          z          Radius
        Label       (Angs)      (Angs)     (Angs)       (Angs) 
--------------------------------------------------------------------------------
     1  Al    c     1.287525    0.110108    2.318147    0.000000
     2  Al    c     1.155859    1.248647   -0.442906    0.000000
     3  Al    c    -0.403066    0.813469   -2.431856    0.000000
     4  F     c    -1.551247   -0.264007   -2.226669    0.000000
     5  F     c     2.096017   -0.439180    0.863330    0.000000
     6  F     c     0.020406    1.742506   -3.680509    0.000000
     7  F     c    -0.254797    1.912615   -0.673896    0.000000
     8  F     c     2.590028    2.419889   -0.313953    0.000000
     9  F     c     1.308232    0.089674   -1.500131    0.000000
    10  F     c     0.415375    1.520926    1.751737    0.000000
    11  F     c     2.644029    0.638642    3.718200    0.000000
    12  F     c    -0.090095   -1.310794    2.846997    0.000000
    13  F     s    -1.463284   -0.178258   -2.249454    0.000000
    14  F     s     1.916986   -0.235357    0.869491    0.000000
    15  F     s    -0.013458    1.661477   -3.565793    0.000000
    16  F     s    -0.214450    1.742567   -0.914566    0.000000
    17  F     s     2.340977    2.225384   -0.355955    0.000000
    18  F     s     1.071352    0.242953   -1.594257    0.000000
    19  F     s     0.554571    1.353606    1.589680    0.000000
    20  F     s     2.381596    0.538430    3.442842    0.000000
    21  F     s     0.174022   -1.034411    2.736850    0.000000
--------------------------------------------------------------------------------


  Final Cartesian derivatives :

--------------------------------------------------------------------------------
   No.  Atomic          x             y             z           Radius
        Label       (eV/Angs)     (eV/Angs)    (eV/Angs)      (eV/Angs)
--------------------------------------------------------------------------------
      1 Al    c       0.000000      0.000000      0.000000      0.000000
      2 Al    c       0.000000      0.000000      0.000000      0.000000
      3 Al    c       0.000000      0.000000      0.000000      0.000000
      4 F     c       0.000000      0.000000      0.000000      0.000000
      5 F     c       0.000000      0.000000      0.000000      0.000000
      6 F     c       0.000000      0.000000      0.000000      0.000000
      7 F     c       0.000000      0.000000      0.000000      0.000000
      8 F     c       0.000000      0.000000      0.000000      0.000000
      9 F     c       0.000000      0.000000      0.000000      0.000000
     10 F     c       0.000000      0.000000      0.000000      0.000000
     11 F     c       0.000000      0.000000      0.000000      0.000000
     12 F     c       0.000000      0.000000      0.000000      0.000000
     13 F     s       0.000000     -0.000000     -0.000000      0.000000
     14 F     s      -0.000000      0.000000      0.000000      0.000000
     15 F     s      -0.000000      0.000000      0.000000      0.000000
     16 F     s      -0.000000      0.000000     -0.000000      0.000000
     17 F     s       0.000000     -0.000000     -0.000000      0.000000
     18 F     s      -0.000000      0.000000      0.000000      0.000000
     19 F     s      -0.000000      0.000000      0.000000      0.000000
     20 F     s       0.000000     -0.000000     -0.000000      0.000000
     21 F     s       0.000000     -0.000000     -0.000000      0.000000
--------------------------------------------------------------------------------
  Maximum abs         0.000000      0.000000      0.000000      0.000000
--------------------------------------------------------------------------------


  Born effective charge tensors : 

-------------------------------------------------------------------------------
  Atom             x           y             z
-------------------------------------------------------------------------------
    1 Al    x       0.8339      0.0753     -0.0591
            y       0.0776      0.8170      0.0590
            z      -0.0641      0.0547      0.5353
-------------------------------------------------------------------------------
    2 Al    x       0.6474     -0.4293     -0.2203
            y      -0.3921      1.1828     -0.5613
            z      -0.3025     -0.6318      2.0862
-------------------------------------------------------------------------------
    3 Al    x       1.3515     -0.6510      0.4648
            y      -0.6855      1.0090      0.5916
            z       0.5411      0.6570      1.4390
-------------------------------------------------------------------------------
    4 F     x      -0.2144      0.4384     -0.1348
            y       0.4066     -0.2537     -0.1150
            z      -0.0646     -0.0548     -0.6557
-------------------------------------------------------------------------------
    5 F     x      -0.4221      0.1620     -0.2591
            y       0.1428     -0.6073      0.3105
            z      -0.1749      0.2199     -0.3346
-------------------------------------------------------------------------------
    6 F     x      -0.5831      0.1236     -0.1625
            y       0.1672     -0.3426     -0.3428
            z      -0.2586     -0.4252     -0.1924
-------------------------------------------------------------------------------
    7 F     x       0.0200     -0.0842      0.1383
            y      -0.1280     -0.2924     -0.1345
            z       0.1045     -0.0952     -0.4016
-------------------------------------------------------------------------------
    8 F     x      -0.1721      0.2626      0.0118
            y       0.2684     -0.2878      0.0734
            z      -0.0009      0.0625     -0.6243
-------------------------------------------------------------------------------
    9 F     x      -0.3948      0.0660     -0.0726
            y       0.1005     -0.1701      0.2463
            z      -0.0184      0.2245     -0.1092
-------------------------------------------------------------------------------
   10 F     x      -0.3417     -0.0645      0.2339
            y      -0.0524     -0.2247     -0.2107
            z       0.1653     -0.1067     -0.7975
-------------------------------------------------------------------------------
   11 F     x      -0.3498      0.0314      0.1061
            y       0.0263     -0.4553      0.0780
            z       0.1174      0.0877     -0.4138
-------------------------------------------------------------------------------
   12 F     x      -0.3748      0.0695     -0.0464
            y       0.0686     -0.3750      0.0055
            z      -0.0444      0.0072     -0.5313
-------------------------------------------------------------------------------




  Moment of inertia tensor (10^-46 x kgm^2): 

-------------------------------------------------------------------------------
                x           y           z           Principal axis system
-------------------------------------------------------------------------------
       x        243.36       -7.91      -56.14           80.069189
       y         -7.91      260.74       32.53          246.066048
       z        -56.14       32.53      104.30          282.264930
-------------------------------------------------------------------------------
  Centre of mass (Ang) =     0.759819     0.708509    -0.000399
-------------------------------------------------------------------------------


  Vibrational Frequency Calculation : 

--------------------------------------------------------------------------------

  Frequencies (cm-1) and Eigenvectors : 

  Frequency    -265.8179 -246.0787 -204.1312 -202.1998 -179.0925 -118.6917
  IR Intensity    0.1087    0.0228    0.1381    0.0002    0.0421    0.0955
     in X         0.0002    0.0086    0.0523    0.0001    0.0003    0.0266
     in Y         0.0157    0.0118    0.0712    0.0001    0.0052    0.0005
     in Z         0.0928    0.0024    0.0146    0.0000    0.0366    0.0684
  Raman Intsty    2.1893    0.0000    0.0000    0.0000    0.7111    0.5692

     1 x      -0.005223 -0.056017  0.018281  0.009330  0.001422 -0.029648
     1 y      -0.027300  0.065331 -0.021321 -0.010882 -0.023900 -0.012946
     1 z       0.050349  0.029612 -0.009664 -0.004932  0.055421 -0.027520
     2 x      -0.218569  0.272115 -0.031806 -0.088871 -0.094918 -0.150840
     2 y      -0.392599 -0.317370  0.037095  0.103650 -0.177705 -0.073509
     2 z       0.452737 -0.143840  0.016813  0.046977  0.212510 -0.123164
     3 x       0.167018 -0.136138 -0.379619  0.071422  0.091196 -0.108240
     3 y       0.174362  0.158780  0.442745 -0.083299  0.063822  0.022547
     3 z      -0.068749  0.071964  0.200671 -0.037754  0.031708 -0.254510
     4 x       0.178120  0.068716  0.356445  0.379935 -0.184087  0.125363
     4 y       0.091174 -0.080139 -0.415718 -0.443114  0.183708 -0.089897
     4 z       0.135800 -0.036321 -0.188422 -0.200841 -0.753558  0.435498
     5 x      -0.109424 -0.269498  0.090029  0.018527 -0.055147 -0.067379
     5 y       0.001414  0.343609 -0.091657 -0.041060 -0.016136 -0.080749
     5 z      -0.044544 -0.220051  0.062471  0.015502  0.006213 -0.017136
     6 x      -0.161692 -0.054848  0.238191 -0.344119  0.364012  0.595777
     6 y      -0.026164  0.063966 -0.277798  0.401344  0.205646  0.378765
     6 z      -0.248153  0.028989 -0.125910  0.181908  0.234895  0.291372
     7 x       0.187958  0.168834  0.031617 -0.227150  0.000419 -0.065484
     7 y       0.246777 -0.111523  0.186810 -0.258825 -0.029503  0.045251
     7 z      -0.204118  0.257946  0.080813  0.090869  0.025971 -0.109798
     8 x      -0.165554  0.036408 -0.025739 -0.070355 -0.085161 -0.098683
     8 y      -0.190987 -0.042466  0.030019  0.082055 -0.099415 -0.096343
     8 z       0.108195 -0.019246  0.013606  0.037190  0.058236  0.025885
     9 x       0.181866 -0.045671 -0.205106  0.247363 -0.015568 -0.019854
     9 y       0.253889 -0.032110  0.015528  0.235248 -0.010858 -0.007960
     9 z      -0.200892 -0.323054  0.010896 -0.101554  0.034420 -0.133918
    10 x      -0.043103 -0.150197  0.034157  0.025585 -0.025134 -0.094547
    10 y      -0.075933  0.145870 -0.053180 -0.010387 -0.051139 -0.049064
    10 z      -0.079611  0.441906 -0.128118 -0.038819 -0.009651 -0.002773
    11 x       0.004785  0.080853 -0.028166 -0.008897  0.007920 -0.019980
    11 y       0.005428 -0.094298  0.032850  0.010376 -0.001947 -0.005509
    11 z      -0.002919 -0.042740  0.014889  0.004703  0.019277 -0.025642
    12 x      -0.005301  0.070118 -0.022943 -0.011215 -0.004511 -0.011154
    12 y      -0.013005 -0.081779  0.026758  0.013080 -0.016168 -0.018337
    12 z       0.018671 -0.037065  0.012128  0.005928  0.027137  0.019358


  Frequency    -109.4388  -47.9970   -0.0000    0.0000    0.0000   55.1690
  IR Intensity    0.0003    0.0066    0.0000    0.0000    0.0000    0.0006
     in X         0.0001    0.0025    0.0000    0.0000    0.0000    0.0002
     in Y         0.0002    0.0034    0.0000    0.0000    0.0000    0.0003
     in Z         0.0000    0.0007    0.0000    0.0000    0.0000    0.0001
  Raman Intsty    0.0000    0.0000    0.0000    0.0000    0.0000    0.1754

     1 x       0.076238  0.160451 -0.296366  0.132551  0.041070 -0.360794
     1 y      -0.088915 -0.187129 -0.048448 -0.189593  0.262291 -0.279813
     1 z      -0.040301 -0.084816 -0.130036 -0.231461 -0.191326 -0.065185
     2 x       0.107866 -0.030242 -0.296366  0.132551  0.041070  0.179404
     2 y      -0.125805  0.035271 -0.048448 -0.189593  0.262291  0.150991
     2 z      -0.057020  0.015986 -0.130036 -0.231461 -0.191326  0.006261
     3 x      -0.141570 -0.202459 -0.296366  0.132551  0.041070  0.165158
     3 y       0.165110  0.236122 -0.048448 -0.189593  0.262291  0.126222
     3 z       0.074834  0.107022 -0.130036 -0.231461 -0.191326  0.033955
     4 x      -0.058105 -0.252624 -0.248704  0.111234  0.034465  0.128342
     4 y       0.067768  0.294629 -0.040656 -0.159103  0.220110  0.112334
     4 z       0.030718  0.133540 -0.109123 -0.194237 -0.160557 -0.005048
     5 x       0.109560  0.111741 -0.248704  0.111234  0.034465  0.062761
     5 y      -0.215060 -0.214494 -0.040656 -0.159103  0.220110  0.030225
     5 z       0.036841 -0.062219 -0.109123 -0.194237 -0.160557  0.048981
     6 x      -0.399019  0.027299 -0.248704  0.111234  0.034465  0.094735
     6 y       0.465376 -0.031841 -0.040656 -0.159103  0.220110  0.083110
     6 z       0.210929 -0.014430 -0.109123 -0.194237 -0.160557 -0.004147
     7 x       0.235199 -0.211295 -0.248704  0.111234  0.034465  0.135300
     7 y       0.269661 -0.221105 -0.040656 -0.159103  0.220110  0.103711
     7 z       0.028958  0.373093 -0.109123 -0.194237 -0.160557  0.029671
     8 x       0.188123 -0.065963 -0.248704  0.111234  0.034465  0.157009
     8 y      -0.219406  0.076931 -0.040656 -0.159103  0.220110  0.111730
     8 z      -0.099444  0.034868 -0.109123 -0.194237 -0.160557  0.050519
     9 x      -0.306884  0.097154 -0.248704  0.111234  0.034465  0.136315
     9 y      -0.186057  0.354223 -0.040656 -0.159103  0.220110  0.102528
     9 z       0.008933 -0.312757 -0.109123 -0.194237 -0.160557  0.029135
    10 x       0.148735  0.187384 -0.248704  0.111234  0.034465  0.061530
    10 y      -0.086188 -0.134368 -0.040656 -0.159103  0.220110  0.031648
    10 z      -0.173381 -0.095903 -0.109123 -0.194237 -0.160557  0.049630
    11 x       0.020799  0.105702 -0.248704  0.111234  0.034465 -0.377430
    11 y      -0.024258 -0.123276 -0.040656 -0.159103  0.220110 -0.359630
    11 z      -0.010995 -0.055875 -0.109123 -0.194237 -0.160557  0.079448
    12 x       0.010907  0.086697 -0.248704  0.111234  0.034465 -0.379220
    12 y      -0.012721 -0.101112 -0.040656 -0.159103  0.220110 -0.212558
    12 z      -0.005765 -0.045829 -0.109123 -0.194237 -0.160557 -0.248433


  Frequency      70.8667  124.3547  143.1922  155.3627  191.4741  194.1078
  IR Intensity    0.0002    0.0007    0.1249    0.0044    0.0210    0.0200
     in X         0.0001    0.0002    0.0001    0.0002    0.0039    0.0076
     in Y         0.0001    0.0003    0.0190    0.0013    0.0000    0.0103
     in Z         0.0000    0.0001    0.1058    0.0029    0.0171    0.0021
  Raman Intsty    0.0000    0.0000    6.5322    0.1270    0.1710    0.0000

     1 x      -0.168091  0.070802 -0.004604  0.035247 -0.147794 -0.021742
     1 y       0.196036 -0.082576  0.073436 -0.060367 -0.108889  0.025345
     1 z       0.088852 -0.037428 -0.170729  0.199867 -0.039351  0.011489
     2 x       0.130343 -0.125714 -0.051718 -0.095890  0.131244  0.200243
     2 y      -0.152013  0.146619 -0.188879 -0.094774  0.084311 -0.233530
     2 z      -0.068900  0.066455  0.318884  0.027710  0.062309 -0.105845
     3 x       0.016905  0.019961  0.012373  0.014599  0.166979  0.011291
     3 y      -0.019713 -0.023280 -0.110059  0.057556  0.067415 -0.013156
     3 z      -0.008935 -0.010551  0.266231 -0.099369  0.167146 -0.005958
     4 x      -0.007551  0.039431 -0.007671  0.039393  0.119331 -0.013712
     4 y       0.008809 -0.045988 -0.086742  0.036540  0.079784  0.016003
     4 z       0.003992 -0.020843  0.176867 -0.006097  0.049712  0.007254
     5 x      -0.214772 -0.448284  0.066750  0.123258 -0.350982  0.050230
     5 y      -0.286050 -0.257387  0.283646  0.089948 -0.187959 -0.140921
     5 z       0.174689 -0.222096 -0.203688  0.169368 -0.119577  0.084802
     6 x       0.080588  0.005050  0.065775  0.015895  0.031861 -0.036880
     6 y      -0.093988 -0.005890 -0.068633  0.051931 -0.002337  0.043015
     6 z      -0.042599 -0.002669  0.275857 -0.084507  0.065421  0.019497
     7 x       0.034434 -0.064815  0.008220 -0.045576  0.078939  0.245266
     7 y      -0.216060  0.161049 -0.097991 -0.015767  0.031277 -0.068819
     7 z       0.127463 -0.091656  0.161820 -0.037420  0.157997 -0.044186
     8 x       0.217562 -0.041176 -0.125915 -0.211819  0.058318 -0.487969
     8 y      -0.253737  0.048023  0.004048  0.163034  0.208716  0.569123
     8 z      -0.115004  0.021769 -0.247127 -0.760425 -0.350276  0.257930
     9 x       0.131532 -0.089897 -0.019788 -0.039965  0.110046  0.019084
     9 y       0.022500  0.019389 -0.065328 -0.022309 -0.004983 -0.239480
     9 z      -0.215193  0.173440  0.176625 -0.040385  0.141561 -0.095536
    10 x       0.234853  0.425028  0.185240  0.177189 -0.299043  0.078367
    10 y       0.262634  0.284512  0.145449  0.027053 -0.248542 -0.009109
    10 z      -0.185303  0.234388 -0.266324  0.140862 -0.147024 -0.152804
    11 x      -0.159883  0.284113 -0.014677 -0.037460  0.047446  0.065042
    11 y       0.186461 -0.331358  0.059055 -0.165991  0.194014 -0.075849
    11 z       0.084515 -0.150186 -0.158057  0.295360 -0.338294 -0.034394
    12 x      -0.291926 -0.067801 -0.105563  0.033951  0.024826 -0.145589
    12 y       0.340463  0.079074  0.095212 -0.048151 -0.121017  0.169795
    12 z       0.154311  0.035838 -0.409770  0.170466  0.313945  0.076976


  Frequency     207.5321  230.9734  250.2587  264.8855  313.3708  333.7052
  IR Intensity    0.0018    0.0053    0.0012    0.0260    0.0533    0.0230
     in X         0.0007    0.0022    0.0007    0.0159    0.0202    0.0007
     in Y         0.0009    0.0026    0.0005    0.0097    0.0274    0.0018
     in Z         0.0002    0.0005    0.0000    0.0004    0.0056    0.0205
  Raman Intsty    0.0000    0.0253    1.4778    0.0368    0.0000    0.1581

     1 x       0.016822  0.005960 -0.013837 -0.265267 -0.267454 -0.034602
     1 y      -0.019621  0.002521 -0.047340 -0.208586  0.311927  0.108401
     1 z      -0.008893  0.005713  0.078269 -0.041613  0.141379 -0.304628
     2 x       0.024783  0.041086 -0.047259 -0.027252 -0.001328 -0.160362
     2 y      -0.028903  0.065956 -0.038142 -0.038989  0.001549 -0.081105
     2 z      -0.013100 -0.067796 -0.005249  0.034469  0.000702 -0.124420
     3 x       0.011619 -0.220142 -0.014411 -0.065206 -0.039564  0.075976
     3 y      -0.013549 -0.287788 -0.022656 -0.031527  0.046143  0.029091
     3 z      -0.006141  0.218498  0.022724 -0.053795  0.020914  0.079546
     4 x       0.006313 -0.297043 -0.030058 -0.050052 -0.009282  0.047633
     4 y      -0.007362 -0.227900 -0.014353 -0.039730  0.010825  0.052660
     4 z      -0.003337 -0.059111 -0.025195 -0.007030  0.004906 -0.026073
     5 x      -0.227813 -0.030461  0.196326  0.273952 -0.099031  0.263230
     5 y      -0.209985  0.015779 -0.308778  0.278704 -0.035508 -0.203326
     5 z      -0.075913 -0.020457  0.295782  0.074094  0.425711 -0.077150
     6 x      -0.001374 -0.004329 -0.016043  0.005551 -0.008775 -0.032395
     6 y       0.001603 -0.165073 -0.023156  0.005838  0.010234 -0.029922
     6 z       0.000726  0.356014  0.020740 -0.002380  0.004639  0.004736
     7 x       0.044067  0.212165  0.022767 -0.007199 -0.013514 -0.098514
     7 y       0.014328  0.366844  0.116273 -0.044231 -0.032875  0.263792
     7 z      -0.018484 -0.231895 -0.001103 -0.086556 -0.017983  0.279989
     8 x      -0.116693  0.038813 -0.071632 -0.021603  0.012009 -0.179882
     8 y       0.136099  0.078907  0.000458 -0.061207 -0.014006 -0.144520
     8 z       0.061683 -0.100666 -0.136516  0.094173 -0.006348 -0.021435
     9 x      -0.015936  0.282703  0.107822 -0.075497  0.039529  0.321373
     9 y      -0.047137  0.284575  0.017074  0.035424  0.002535 -0.225916
     9 z       0.003615 -0.269182 -0.046064 -0.050453  0.004232  0.058033
    10 x       0.271164 -0.001630 -0.106814  0.342342 -0.115131 -0.146785
    10 y       0.159422 -0.017844  0.044773  0.198942  0.285281  0.274868
    10 z       0.052995 -0.035697  0.456026  0.037942 -0.312502  0.139590
    11 x      -0.388999 -0.042749  0.251311 -0.011221  0.260626 -0.273824
    11 y       0.453683 -0.071764  0.343452  0.196199 -0.303964 -0.186918
    11 z       0.205629  0.077466 -0.282344 -0.454102 -0.137770 -0.105606
    12 x       0.365847  0.048799 -0.263701 -0.029994  0.301006  0.240954
    12 y      -0.426682 -0.002185 -0.046882 -0.237351 -0.351058  0.132088
    12 z      -0.193389  0.097137 -0.395418  0.466929 -0.159115  0.164396


  Frequency     362.7617  374.4670  494.1584  505.4341  616.8782  665.0400
  IR Intensity    0.0084    0.0550    0.0232    0.0018    0.0184    0.0323
     in X         0.0013    0.0208    0.0132    0.0001    0.0004    0.0189
     in Y         0.0000    0.0283    0.0039    0.0001    0.0047    0.0133
     in Z         0.0070    0.0058    0.0061    0.0016    0.0133    0.0000
  Raman Intsty    0.8135    0.0000    0.6290    1.4878    0.3630    0.0167

     1 x       0.011575  0.028140 -0.006179  0.023117  0.007813  0.559202
     1 y      -0.082535 -0.032819 -0.012976  0.065799 -0.008941  0.456189
     1 z       0.203993 -0.014877  0.016941 -0.101442  0.034506  0.051373
     2 x      -0.136928  0.007802  0.047725  0.009345 -0.124420 -0.007928
     2 y       0.022651 -0.009097 -0.046858 -0.018146 -0.224216 -0.007007
     2 z      -0.309009 -0.004120  0.193668  0.057715  0.259320  0.000462
     3 x       0.007245 -0.327061 -0.287226 -0.053975 -0.006785 -0.001203
     3 y       0.017437  0.381446 -0.070779 -0.013735 -0.001576 -0.000224
     3 z      -0.024751  0.172888 -0.387197 -0.071804 -0.009358 -0.001782
     4 x       0.009427 -0.070852 -0.325353 -0.066371 -0.075207  0.006344
     4 y       0.022241  0.082633 -0.279661 -0.057523 -0.070385  0.005354
     4 z      -0.031233  0.037453  0.001537  0.001357  0.013019  0.000188
     5 x      -0.189476 -0.035907 -0.042954  0.206151  0.033019 -0.047854
     5 y       0.298106  0.021954  0.014521 -0.145552 -0.015488  0.020702
     5 z       0.033007 -0.061808  0.050153 -0.361720 -0.025975  0.077610
     6 x      -0.024540 -0.064668  0.072758  0.015173  0.022343 -0.002127
     6 y       0.004120  0.075421  0.207984  0.041253  0.041902 -0.003151
     6 z      -0.055510  0.034185 -0.321238 -0.062314 -0.050182  0.002927
     7 x      -0.151406 -0.014269  0.266222  0.070653 -0.384386  0.012661
     7 y       0.329544 -0.327301  0.023367 -0.006877  0.165430 -0.008251
     7 z       0.281886 -0.478857  0.298160  0.069124 -0.035544  0.001239
     8 x      -0.112240  0.049095  0.091104  0.012168  0.541086  0.008343
     8 y      -0.126819 -0.057255  0.088462  0.014193  0.444876  0.009515
     8 z       0.067470 -0.025952 -0.022830 -0.008296  0.042060 -0.005209
     9 x       0.367426  0.484464  0.204579  0.038729  0.038802 -0.003727
     9 y      -0.275557 -0.221085  0.095261  0.030355 -0.328129  0.010862
     9 z       0.007634  0.230302  0.330746  0.085999 -0.259246  0.009902
    10 x       0.230731  0.014053  0.022510 -0.223540 -0.016088  0.037781
    10 y      -0.191975  0.003532 -0.061828  0.355589  0.041785 -0.079174
    10 z      -0.189118  0.073361  0.015548 -0.134581 -0.000016  0.032342
    11 x       0.200368 -0.007651 -0.087089  0.321736 -0.016699 -0.325188
    11 y       0.129602  0.008921 -0.030484  0.108957 -0.005484 -0.147618
    11 z       0.093103  0.004043 -0.097493  0.368249 -0.019490 -0.289483
    12 x      -0.189548 -0.007358  0.090983 -0.349066  0.004169 -0.341718
    12 y      -0.138681  0.008583  0.098024 -0.380814  0.005210 -0.343235
    12 z      -0.052603  0.003890 -0.044154  0.179851 -0.003608  0.110839


  Frequency     713.7016  726.3653  761.6000  797.0908  901.7609  928.2054
  IR Intensity    0.0166    0.0322    0.0091    0.0264    0.0033    0.0002
     in X         0.0063    0.0126    0.0001    0.0100    0.0018    0.0000
     in Y         0.0086    0.0012    0.0010    0.0136    0.0015    0.0000
     in Z         0.0018    0.0184    0.0080    0.0028    0.0000    0.0002
  Raman Intsty    0.0000    0.0146    0.4009    0.0000    0.0828    0.0049

     1 x       0.440223  0.011722  0.122628  0.054880  0.002920 -0.001969
     1 y      -0.513425  0.003763 -0.233158 -0.064006  0.026295  0.006858
     1 z      -0.232706  0.013871  0.746405 -0.029011 -0.052491 -0.018857
     2 x      -0.035452  0.154381  0.044600  0.409805  0.553980  0.118622
     2 y       0.041347  0.123624  0.060348 -0.477948  0.280904  0.044891
     2 z       0.018740  0.019292 -0.048776 -0.216626  0.428232  0.125360
     3 x       0.003223  0.311451 -0.023653  0.000657 -0.086261 -0.449423
     3 y      -0.003760  0.055496 -0.007136 -0.000767  0.074679 -0.512363
     3 z      -0.001705  0.466743 -0.029001 -0.000349 -0.327949  0.280243
     4 x      -0.000576 -0.353454  0.021992  0.000096 -0.025037  0.353083
     4 y       0.000672 -0.340989  0.020599 -0.000111 -0.019483  0.331040
     4 z       0.000304  0.083684 -0.003846 -0.000050 -0.004379 -0.062436
     5 x      -0.230397 -0.003460  0.137428 -0.013265 -0.021389 -0.005799
     5 y       0.164192 -0.007610 -0.078398  0.000733 -0.011295 -0.001381
     5 z       0.390897 -0.006674 -0.320542  0.059788  0.009713  0.001574
     6 x      -0.000695  0.153998 -0.006322 -0.000590 -0.052576  0.107923
     6 y       0.000810  0.319041 -0.011870  0.000687 -0.112932  0.239260
     6 z       0.000368 -0.412580  0.014230  0.000312  0.149704 -0.323721
     7 x       0.068803 -0.124318 -0.009009 -0.466651 -0.259648 -0.043691
     7 y      -0.028284  0.018575  0.009998  0.196580  0.136417  0.052181
     7 z       0.023545 -0.100459 -0.003141 -0.116332 -0.016045 -0.017885
     8 x      -0.002428 -0.165471 -0.043035 -0.016340 -0.238293 -0.042163
     8 y       0.002832 -0.136357 -0.038414  0.019056 -0.188985 -0.033018
     8 z       0.001283 -0.012182  0.003343  0.008637 -0.033830 -0.006914
     9 x      -0.001109 -0.053947  0.005394 -0.014036  0.051202  0.028359
     9 y      -0.050666 -0.063497 -0.006799  0.364039 -0.226124 -0.031851
     9 z      -0.059328 -0.137657 -0.010754  0.370429 -0.180365 -0.055972
    10 x      -0.245822 -0.010237 -0.164357 -0.021379 -0.011274 -0.001995
    10 y       0.391214  0.000294  0.273569  0.039671 -0.023092 -0.005818
    10 z      -0.139163 -0.003093 -0.161014 -0.041475  0.004366 -0.000437
    11 x      -0.036286 -0.008165 -0.173374 -0.010951  0.003967  0.002007
    11 y       0.042319 -0.003478 -0.045763  0.012772  0.000109  0.000473
    11 z       0.019180 -0.007772 -0.227012  0.005789  0.007265  0.002754
    12 x      -0.037673 -0.004017  0.060191 -0.011403 -0.007784 -0.001182
    12 y       0.043937 -0.003910  0.091507  0.013299 -0.009675 -0.002001
    12 z       0.019914  0.001027 -0.088026  0.006028  0.006621  0.002177




--------------------------------------------------------------------------------
  Vibrational properties (for cluster):  Temperature  =       0.000 K
--------------------------------------------------------------------------------
  Zero point energy            =        0.643651 eV
--------------------------------------------------------------------------------

  Phonon density of states : 

--------------------------------------------------------------------------------
 Frequency (cm-1) Density of States                                             
--------------------------------------------------------------------------------
    0.00000 |************************************************************  0.074
   14.50321 |                                                              0.000
   29.00642 |                                                              0.000
   43.50963 |******************************                                0.037
   58.01284 |******************************                                0.037
   72.51605 |                                                              0.000
   87.01926 |                                                              0.000
  101.52247 |                                                              0.000
  116.02568 |******************************                                0.037
  130.52889 |******************************                                0.037
  145.03211 |******************************                                0.037
  159.53532 |                                                              0.000
  174.03853 |                                                              0.000
  188.54174 |************************************************************  0.074
  203.04495 |******************************                                0.037
  217.54816 |******************************                                0.037
  232.05137 |                                                              0.000
  246.55458 |******************************                                0.037
  261.05779 |******************************                                0.037
  275.56100 |                                                              0.000
  290.06421 |                                                              0.000
  304.56742 |******************************                                0.037
  319.07063 |                                                              0.000
  333.57384 |******************************                                0.037
  348.07705 |                                                              0.000
  362.58026 |************************************************************  0.074
  377.08347 |                                                              0.000
  391.58668 |                                                              0.000
  406.08990 |                                                              0.000
  420.59311 |                                                              0.000
  435.09632 |                                                              0.000
  449.59953 |                                                              0.000
  464.10274 |                                                              0.000
  478.60595 |                                                              0.000
  493.10916 |************************************************************  0.074
  507.61237 |                                                              0.000
  522.11558 |                                                              0.000
  536.61879 |                                                              0.000
  551.12200 |                                                              0.000
  565.62521 |                                                              0.000
  580.12842 |                                                              0.000
  594.63163 |                                                              0.000
  609.13484 |******************************                                0.037
  623.63805 |                                                              0.000
  638.14126 |                                                              0.000
  652.64447 |******************************                                0.037
  667.14769 |                                                              0.000
  681.65090 |                                                              0.000
  696.15411 |                                                              0.000
  710.65732 |******************************                                0.037
  725.16053 |******************************                                0.037
  739.66374 |                                                              0.000
  754.16695 |******************************                                0.037
  768.67016 |                                                              0.000
  783.17337 |******************************                                0.037
  797.67658 |                                                              0.000
  812.17979 |                                                              0.000
  826.68300 |                                                              0.000
  841.18621 |                                                              0.000
  855.68942 |                                                              0.000
  870.19263 |                                                              0.000
  884.69584 |                                                              0.000
  899.19905 |******************************                                0.037
  913.70226 |******************************                                0.037
--------------------------------------------------------------------------------



  Time to end of optimisation =       0.0324 seconds


  Peak dynamic memory used =       0.65 MB 


  Timing analysis for GULP :

--------------------------------------------------------------------------------
  Task / Subroutine                                          Time (Seconds)
--------------------------------------------------------------------------------
  Calculation of real space energy and derivatives                0.0021
  Calculation of phonons                                          0.0016
  Calculation and manipulation of Hessian matrix                  0.0012
--------------------------------------------------------------------------------
  Total CPU time                                                  0.0325
--------------------------------------------------------------------------------


  Job Finished at 14:38.44 25th May        2022                               

