********************************************************************************
*                       GENERAL UTILITY LATTICE PROGRAM                        *
*                                 Julian Gale                                  *
*                       Curtin Institute for Computation                       *
*                           Department of Chemistry                            *
*                    Curtin University, Western Australia                      *
********************************************************************************
* Version = 5.1.1 * Last modified =  11th January 2019                         *
********************************************************************************
*  single       - perform a single point run                                   *
*  phonon       - calculate phonons for final geometry                         *
*  eigenvectors - output phonon eigenvectors                                   *
********************************************************************************

  Job Started  at 10:30.01 17th May        2022                               

  Number of CPUs =     1

  Host name      = login04                                 


  Total number of configurations input =      1

********************************************************************************
*  Input for Configuration =   1                                               *
********************************************************************************

  Formula = Al3F9                                                       

  Number of irreducible atoms/shells =      21


  Total number atoms/shells =      21

  Dimensionality = 0               :  Cluster


  Charge on cluster =  -0.000000


  Initial cluster dipoles : x =     -1.056993 e.Angs
                            y =      0.206398 e.Angs
                            z =     -2.454948 e.Angs

  Temperature of configuration =  0.000     K 

  Symmetry number =      1

  Cartesian coordinates of cluster :

--------------------------------------------------------------------------------
   No.  Atomic       x           y          z         Charge      Occupancy
        Label      (Angs)      (Angs)     (Angs)        (e)         (Frac)  
--------------------------------------------------------------------------------
      1 Al    c      1.2875      0.1101      2.3181     3.00000    1.000000    
      2 Al    c      1.1559      1.2486     -0.4429     3.00000    1.000000    
      3 Al    c     -0.4031      0.8135     -2.4319     3.00000    1.000000    
      4 F     c     -1.5512     -0.2640     -2.2267     0.59000    1.000000    
      5 F     c      2.0960     -0.4392      0.8633     0.59000    1.000000    
      6 F     c      0.0204      1.7425     -3.6805     0.59000    1.000000    
      7 F     c     -0.2548      1.9126     -0.6739     0.59000    1.000000    
      8 F     c      2.5900      2.4199     -0.3140     0.59000    1.000000    
      9 F     c      1.3082      0.0897     -1.5001     0.59000    1.000000    
     10 F     c      0.4154      1.5209      1.7517     0.59000    1.000000    
     11 F     c      2.6440      0.6386      3.7182     0.59000    1.000000    
     12 F     c     -0.0901     -1.3108      2.8470     0.59000    1.000000    
     13 F     s     -1.5512     -0.2640     -2.2267    -1.59000    1.000000    
     14 F     s      2.0960     -0.4392      0.8633    -1.59000    1.000000    
     15 F     s      0.0204      1.7425     -3.6805    -1.59000    1.000000    
     16 F     s     -0.2548      1.9126     -0.6739    -1.59000    1.000000    
     17 F     s      2.5900      2.4199     -0.3140    -1.59000    1.000000    
     18 F     s      1.3082      0.0897     -1.5001    -1.59000    1.000000    
     19 F     s      0.4154      1.5209      1.7517    -1.59000    1.000000    
     20 F     s      2.6440      0.6386      3.7182    -1.59000    1.000000    
     21 F     s     -0.0901     -1.3108      2.8470    -1.59000    1.000000    
--------------------------------------------------------------------------------


  Brillouin zone sampling points :

--------------------------------------------------------------------------------
  Point number          x          y          z            Weight
--------------------------------------------------------------------------------
        1           0.000000   0.000000   0.000000     1.00000000
--------------------------------------------------------------------------------


********************************************************************************
*  General input information                                                   *
********************************************************************************

  Species output for all configurations : 

--------------------------------------------------------------------------------
  Species    Type    Atomic    Atomic    Charge       Radii (Angs)     Library
                     Number     Mass       (e)     Cova   Ionic  VDW   Symbol
--------------------------------------------------------------------------------
    Al       Core       13      26.98   3.000000   1.350  0.000  2.050          
    F        Core        9      19.00   0.590000   0.710  0.000  1.300          
    F        Shell       9       0.00  -1.590000   0.710  0.000  1.300          
--------------------------------------------------------------------------------


  Accuracy factor for short range sums = 12.000

  Time limit = Infinity

  Maximum range for interatomic potentials =    100000.000000 Angstroms

  General interatomic potentials :

--------------------------------------------------------------------------------
Atom  Types   Potential      Parameter       Value         Units   Cutoffs(Ang)
  1     2                                                            Min /  Max 
--------------------------------------------------------------------------------
Al   c F    s Buckingham    Buckingham A     3760.0008    eV        0.000 10.000
                            Buckingham rho  0.22200000    Ang       
                            Buckingham C     0.0000000    eV*Ang^6  
--------------------------------------------------------------------------------
F    s F    s Buck 4 range  Buck4 A          1127.7000    eV        0.000 12.000
                            Buck4 rho       0.27530000    Ang       
                            Buck4 C          15.830000    eV*Ang^6  
                            Buck4 minimum    2.7900000    Ang       
--------------------------------------------------------------------------------
F    c F    s Spring (c-s)  Spring k 2       20.770000    eV*Ang^-2 0.000  0.800
                            Spring k 4       0.0000000    eV*Ang^-4 
--------------------------------------------------------------------------------

********************************************************************************
*  Output for configuration   1                                                *
********************************************************************************


  Components of energy : 

--------------------------------------------------------------------------------
  Interatomic potentials     =          16.84487688 eV    
  Monopole - monopole (real) =        -181.81003527 eV    
--------------------------------------------------------------------------------
  Total lattice energy       =        -164.96515838 eV    
--------------------------------------------------------------------------------
  Total lattice energy       =          -15916.6161 kJ/mol
--------------------------------------------------------------------------------

  Born effective charge tensors : 

-------------------------------------------------------------------------------
  Atom             x           y             z
-------------------------------------------------------------------------------
    1 Al    x       2.5957      0.9553      0.3759
            y       0.9492      2.1523     -0.1226
            z       0.3893     -0.1111      2.2645
-------------------------------------------------------------------------------
    2 Al    x       1.4724      0.3784     -0.0675
            y       0.4262      1.6609     -0.5044
            z      -0.1731     -0.5949      2.0518
-------------------------------------------------------------------------------
    3 Al    x       1.9067     -0.5216      0.5533
            y      -0.5534      1.5381      0.4632
            z       0.6235      0.5233      2.2473
-------------------------------------------------------------------------------
    4 F     x      -0.3347      0.1942     -0.1090
            y       0.1842     -0.3152     -0.0672
            z      -0.0870     -0.0483     -0.5615
-------------------------------------------------------------------------------
    5 F     x      -0.5374      0.2082     -0.1349
            y       0.2038     -0.7200      0.2502
            z      -0.0578      0.1853     -0.7185
-------------------------------------------------------------------------------
    6 F     x      -0.4891      0.0538     -0.1129
            y       0.0647     -0.3767     -0.1324
            z      -0.1369     -0.1530     -0.4136
-------------------------------------------------------------------------------
    7 F     x      -0.0725     -0.1180      0.0267
            y      -0.1529     -0.4277     -0.2139
            z      -0.0156     -0.2516     -0.8178
-------------------------------------------------------------------------------
    8 F     x      -0.9577     -0.4125     -0.0423
            y      -0.4383     -0.8380      0.0176
            z       0.0146      0.0664     -0.5730
-------------------------------------------------------------------------------
    9 F     x      -0.6911      0.1133     -0.2288
            y       0.1757     -0.2394      0.2917
            z      -0.2470      0.2774     -0.3875
-------------------------------------------------------------------------------
   10 F     x      -0.4854      0.0857      0.1713
            y       0.0791     -0.5024     -0.0731
            z       0.1184      0.0125     -0.9881
-------------------------------------------------------------------------------
   11 F     x      -1.2074     -0.2581     -0.6905
            y      -0.2454     -0.6495     -0.2256
            z      -0.7185     -0.2496     -1.3498
-------------------------------------------------------------------------------
   12 F     x      -1.1995     -0.6786      0.2587
            y      -0.6928     -1.2823      0.3165
            z       0.2901      0.3435     -0.7538
-------------------------------------------------------------------------------




  Moment of inertia tensor (10^-46 x kgm^2): 

-------------------------------------------------------------------------------
                x           y           z           Principal axis system
-------------------------------------------------------------------------------
       x        243.36       -7.91      -56.14           80.069181
       y         -7.91      260.74       32.53          246.066069
       z        -56.14       32.53      104.30          282.264944
-------------------------------------------------------------------------------
  Centre of mass (Ang) =     0.759819     0.708509    -0.000399
-------------------------------------------------------------------------------


  Vibrational Frequency Calculation : 

--------------------------------------------------------------------------------

  Frequencies (cm-1) and Eigenvectors : 

  Frequency    -434.7767 -330.4221 -306.1949 -287.6999 -220.6117 -111.6867
  IR Intensity    0.6654    0.0732    0.4138    0.1383    0.1220    0.0011
     in X         0.4120    0.0277    0.0033    0.0524    0.0153    0.0004
     in Y         0.2261    0.0377    0.0929    0.0713    0.0017    0.0006
     in Z         0.0273    0.0077    0.3176    0.0146    0.1051    0.0001
  Raman Intsty    0.0065    0.0000    3.5818    0.0000    0.5974    0.0000

     1 x       0.553817  0.068336 -0.015563  0.203174 -0.002325 -0.045610
     1 y       0.414110 -0.079700  0.075873 -0.236959 -0.048844  0.053193
     1 z       0.134026 -0.036123 -0.196841 -0.107400  0.103366  0.024110
     2 x      -0.039224 -0.288862  0.285459 -0.235939  0.202806 -0.045711
     2 y      -0.038685  0.336894  0.455819  0.275171  0.215759  0.053314
     2 z       0.011148  0.152696 -0.465664  0.124720 -0.092374  0.024162
     3 x      -0.010922  0.464712 -0.156433 -0.261770 -0.040271  0.052316
     3 y      -0.003136 -0.541987 -0.155016  0.305298 -0.129458 -0.061017
     3 z      -0.013743 -0.245652  0.046079  0.138374  0.209444 -0.027655
     4 x      -0.004075 -0.033636 -0.116883  0.025365 -0.108612  0.132829
     4 y      -0.002000  0.039229 -0.093704 -0.029582 -0.056751 -0.154918
     4 z      -0.003296  0.017780 -0.014373 -0.013408 -0.080254 -0.070215
     5 x       0.008138  0.040948  0.107707  0.232700  0.056143 -0.084859
     5 y       0.007779 -0.084814 -0.078683 -0.323218  0.005219  0.022667
     5 z      -0.003224 -0.018596  0.030206  0.127544  0.033710  0.008555
     6 x       0.002959 -0.008730  0.028094  0.005476 -0.009895 -0.056888
     6 y       0.002947  0.010182 -0.033606 -0.006386 -0.083442  0.066349
     6 z      -0.000904  0.004615  0.127293 -0.002895  0.165380  0.030073
     7 x      -0.002871 -0.197070 -0.089986 -0.192464 -0.032002 -0.342539
     7 y       0.014134  0.202190 -0.134101  0.005907 -0.161526 -0.561037
     7 z       0.001718  0.086657  0.155981 -0.252471  0.083581  0.118173
     8 x       0.002493 -0.017853  0.051651 -0.060104  0.102800 -0.074999
     8 y      -0.005475  0.020821  0.080921  0.070098  0.115788  0.087471
     8 z       0.016797  0.009437 -0.080826  0.031772 -0.060994  0.039645
     9 x       0.012482 -0.165621 -0.077835  0.142539 -0.117017  0.531448
     9 y      -0.003772  0.220812 -0.148275  0.052321 -0.062378  0.340718
     9 z      -0.006398  0.105066  0.149559  0.278863  0.128521 -0.218031
    10 x       0.007555  0.072473 -0.031332  0.178145  0.031719 -0.002894
    10 y       0.008459 -0.047467  0.083475 -0.155944  0.033705  0.079677
    10 z      -0.002916 -0.041359  0.103703 -0.344721  0.046621  0.037834
    11 x      -0.283168  0.009200  0.220348  0.009634 -0.441749 -0.025800
    11 y      -0.087864 -0.010730  0.101761 -0.011235 -0.173622  0.030089
    11 z      -0.341827 -0.004863  0.192324 -0.005092 -0.452613  0.013637
    12 x      -0.343706  0.009306 -0.226971  0.009689  0.327700 -0.029817
    12 y      -0.377841 -0.010853 -0.226649 -0.011301  0.338373  0.034776
    12 z       0.183432 -0.004919  0.070688 -0.005122 -0.126632  0.015761


  Frequency     -87.5749  -60.3462  -59.2838  -24.3642   -0.0000    0.0000
  IR Intensity    0.0469    0.0050    0.0016    0.0015    0.0000    0.0000
     in X         0.0031    0.0031    0.0006    0.0006    0.0000    0.0000
     in Y         0.0020    0.0014    0.0008    0.0008    0.0000    0.0000
     in Z         0.0417    0.0005    0.0002    0.0002    0.0000    0.0000
  Raman Intsty    2.4803    0.4680    0.0000    0.0000    0.0000    0.0000

     1 x       0.106407  0.350910 -0.000657  0.191590  0.037862 -0.234803
     1 y       0.080557  0.302793  0.000769 -0.223451 -0.318054  0.019923
     1 z       0.023560 -0.004222  0.000348 -0.101281  0.067058  0.227067
     2 x      -0.034036 -0.185055 -0.034309  0.007782  0.037862 -0.234803
     2 y      -0.095846 -0.135804  0.040013 -0.009066 -0.318054  0.019923
     2 z       0.147082 -0.050452  0.018136 -0.004107  0.067058  0.227067
     3 x      -0.002243 -0.204041 -0.039792 -0.144289  0.037862 -0.234803
     3 y      -0.087033 -0.169505  0.046407  0.168282 -0.318054  0.019923
     3 z       0.187782 -0.012015  0.021035  0.076284  0.067058  0.227067
     4 x      -0.306348 -0.070981  0.532912 -0.161538  0.031773 -0.197043
     4 y       0.080253 -0.190350 -0.621529  0.188399 -0.266905  0.016719
     4 z      -0.756599  0.285708 -0.281701  0.085396  0.056274  0.190550
     5 x      -0.035881  0.068211 -0.012980  0.019244  0.031773 -0.197043
     5 y       0.103705  0.113787  0.042286 -0.074760 -0.266905  0.016719
     5 z      -0.059927 -0.075530 -0.025673 -0.217313  0.056274  0.190550
     6 x       0.158899 -0.172235 -0.242768 -0.243323  0.031773 -0.197043
     6 y       0.014489 -0.142307  0.283133  0.283756 -0.266905  0.016719
     6 z       0.268633 -0.011858  0.128328  0.128612  0.056274  0.190550
     7 x      -0.014480 -0.168592  0.039463 -0.048744  0.031773 -0.197043
     7 y      -0.094324 -0.135805  0.190189  0.020793 -0.266905  0.016719
     7 z      -0.058796 -0.021263  0.057552  0.411601  0.056274  0.190550
     8 x      -0.022677 -0.128984 -0.007185  0.034192  0.031773 -0.197043
     8 y      -0.086992 -0.112837  0.008379 -0.039870 -0.266905  0.016719
     8 z       0.149032  0.004950  0.003798 -0.018069  0.056274  0.190550
     9 x      -0.110409 -0.169373 -0.200680 -0.171417  0.031773 -0.197043
     9 y       0.017559 -0.134891 -0.002168  0.235987 -0.266905  0.016719
     9 z      -0.008089 -0.020848  0.027667 -0.295226  0.056274  0.190550
    10 x       0.058945  0.086829 -0.023937  0.148444  0.031773 -0.197043
    10 y      -0.006888  0.092075  0.000773 -0.120802 -0.266905  0.016719
    10 z      -0.110052 -0.085371  0.045187  0.128662  0.056274  0.190550
    11 x       0.161331  0.290879  0.004002  0.185562  0.031773 -0.197043
    11 y       0.081670  0.232937 -0.004665 -0.216417 -0.266905  0.016719
    11 z       0.125006  0.036338 -0.002115 -0.098089  0.056274  0.190550
    12 x       0.027052  0.309751  0.000256  0.171943  0.031773 -0.197043
    12 y       0.012460  0.280389 -0.000297 -0.200542 -0.266905  0.016719
    12 z       0.023682 -0.032656 -0.000135 -0.090893  0.056274  0.190550


  Frequency       0.0000   20.3713   55.0049   68.7494  111.4915  135.8070
  IR Intensity    0.0000    0.0976    0.0179    0.0171    0.0271    0.0004
     in X         0.0000    0.0276    0.0003    0.0065    0.0115    0.0002
     in Y         0.0000    0.0005    0.0043    0.0088    0.0015    0.0002
     in Z         0.0000    0.0695    0.0133    0.0018    0.0141    0.0000
  Raman Intsty    0.0000   13.7885    7.4524    0.0000    4.2227    0.0000

     1 x      -0.224773 -0.043155  0.104397  0.025784 -0.079295 -0.044999
     1 y      -0.074387 -0.017993  0.012278 -0.030070 -0.032684  0.052482
     1 z      -0.225904 -0.041915  0.170396 -0.013627 -0.077894  0.023787
     2 x      -0.224773  0.197835 -0.036067 -0.088662  0.022025  0.033073
     2 y      -0.074387  0.102764 -0.014295  0.103404 -0.036929 -0.038572
     2 z      -0.225904  0.147526 -0.036696  0.046866  0.123143 -0.017483
     3 x      -0.224773  0.101541  0.052435 -0.143298  0.242082 -0.014097
     3 y      -0.074387 -0.050114  0.165339  0.167129  0.213562  0.016442
     3 z      -0.225904  0.302642 -0.265599  0.075745 -0.013230  0.007452
     4 x      -0.188625 -0.016294 -0.005828  0.142904  0.240345  0.015245
     4 y      -0.062424  0.006352  0.166567 -0.166664  0.167950 -0.017780
     4 z      -0.189575 -0.044858 -0.378512 -0.075544  0.084121 -0.008058
     5 x      -0.188625  0.000239  0.123001 -0.065700  0.047694 -0.377191
     5 y      -0.062424  0.186158 -0.157774  0.069292  0.255568 -0.482537
     5 z      -0.189575 -0.090590  0.224240 -0.097145 -0.108220  0.009331
     6 x      -0.188625 -0.611903 -0.280732  0.477378  0.120476  0.017361
     6 y      -0.062424 -0.407412 -0.031896 -0.556760  0.139853 -0.020248
     6 z      -0.189575 -0.258728 -0.460663 -0.252353 -0.080648 -0.009178
     7 x      -0.188625  0.139545 -0.089727 -0.102829 -0.203430  0.036450
     7 y      -0.062424 -0.018417 -0.063564  0.113359 -0.470034  0.028626
     7 z      -0.189575 -0.094212  0.244697  0.279389  0.082076  0.112206
     8 x      -0.188625  0.151894 -0.069833 -0.087412 -0.010896  0.175067
     8 y      -0.062424  0.079657  0.000112  0.101945 -0.019156 -0.204178
     8 z      -0.189575  0.111603 -0.132360  0.046204  0.021655 -0.092542
     9 x      -0.188625 -0.020183  0.020094 -0.187154 -0.431773 -0.079070
     9 y      -0.062424  0.167873 -0.191646  0.224838 -0.203715  0.021080
     9 z      -0.189575 -0.009759  0.186643 -0.126097  0.202783 -0.089677
    10 x      -0.188625  0.128269 -0.019799 -0.006404  0.194050  0.514064
    10 y      -0.062424  0.036836  0.008773  0.014800  0.084875  0.322900
    10 z      -0.189575 -0.158279  0.299728  0.135267 -0.185586 -0.081685
    11 x      -0.188625  0.033293  0.027813  0.043394 -0.041894 -0.057380
    11 y      -0.062424  0.007006 -0.001137 -0.050609 -0.042802  0.066923
    11 z      -0.189575  0.047548  0.055117 -0.022938  0.015185  0.030332
    12 x      -0.188625 -0.110183  0.151103  0.031509 -0.134803 -0.213537
    12 y      -0.062424 -0.099350  0.075944 -0.036745 -0.084074  0.249046
    12 z      -0.189575  0.010784  0.118287 -0.016654 -0.069520  0.112879


  Frequency     157.0410  157.9031  168.7308  177.4860  184.3176  205.6053
  IR Intensity    0.0090    0.0137    0.0004    0.0003    0.0865    0.0378
     in X         0.0024    0.0034    0.0001    0.0001    0.0024    0.0143
     in Y         0.0000    0.0062    0.0002    0.0001    0.0071    0.0195
     in Z         0.0066    0.0040    0.0000    0.0000    0.0771    0.0040
  Raman Intsty    0.4988    0.0100    0.0000    0.0000    0.4883    0.0000

     1 x      -0.025780 -0.008383  0.005393  0.002300 -0.032601 -0.037345
     1 y      -0.043637  0.042159 -0.006290 -0.002682 -0.042118  0.043552
     1 z       0.047509 -0.108874 -0.002851 -0.001216  0.031253  0.019740
     2 x       0.069573  0.078382 -0.006405 -0.005983 -0.023831 -0.159587
     2 y       0.063904  0.069511  0.007471  0.006978 -0.116937  0.186123
     2 z      -0.009379 -0.005084  0.003386  0.003163  0.212916  0.084359
     3 x       0.092057  0.089424  0.026796 -0.019573  0.111034 -0.074277
     3 y       0.050536  0.079312 -0.031252  0.022828 -0.015248  0.086627
     3 z       0.062648 -0.005819 -0.014165  0.010347  0.243689  0.039263
     4 x       0.070425  0.084096 -0.007991  0.000546  0.026895 -0.002186
     4 y       0.050221  0.070040  0.009320 -0.000637  0.023727  0.002548
     4 z       0.022422  0.004557  0.004224 -0.000289 -0.001471  0.001155
     5 x      -0.313118 -0.159459 -0.218204  0.305109 -0.027594 -0.241482
     5 y      -0.094007 -0.294457  0.004803  0.126805 -0.056147  0.195316
     5 z      -0.113661 -0.038239 -0.092108  0.091400  0.067416 -0.055220
     6 x       0.017787 -0.021242 -0.017597  0.011364 -0.022733  0.012092
     6 y       0.012070  0.018304  0.020523 -0.013254 -0.080826 -0.014103
     6 z       0.007018 -0.080569  0.009302 -0.006007  0.135324 -0.006392
     7 x      -0.012044 -0.003034  0.031545 -0.041593  0.039946 -0.173719
     7 y      -0.113128 -0.065235  0.005332 -0.012177  0.017183  0.021337
     7 z      -0.106529  0.062025 -0.200161  0.144774  0.170045 -0.220873
     8 x       0.028360  0.115613 -0.276455  0.244641 -0.175247  0.405688
     8 y       0.142796 -0.174969  0.322426 -0.285321  0.093250 -0.473150
     8 z      -0.261402  0.604751  0.146138 -0.129321 -0.537258 -0.214451
     9 x      -0.145551 -0.033538  0.067812 -0.037145  0.092970  0.111706
     9 y       0.042582 -0.029657 -0.121210  0.104007 -0.044659  0.050989
     9 z      -0.035955  0.078150  0.147639 -0.103152  0.142016  0.253655
    10 x      -0.204472 -0.314159  0.085522 -0.222596 -0.029300 -0.091957
    10 y      -0.220724 -0.114036  0.149940 -0.223039 -0.054155  0.193575
    10 z      -0.171095  0.043537  0.162244 -0.135017  0.068319  0.231480
    11 x       0.119023  0.172014  0.453314  0.187857  0.247547  0.140625
    11 y       0.160712  0.310571 -0.528694 -0.219093  0.353670 -0.164006
    11 z      -0.129416 -0.359810 -0.239627 -0.099304 -0.312011 -0.074338
    12 x       0.277707 -0.030265 -0.148670 -0.420471 -0.217549  0.162415
    12 y      -0.064894  0.051858  0.173392  0.490388 -0.044337 -0.189423
    12 z       0.668527 -0.171672  0.078590  0.222265 -0.313730 -0.085852


  Frequency     209.3690  241.9603  268.8483  269.5117  356.5243  421.2928
  IR Intensity    0.0608    0.0632    0.0412    0.1513    0.0459    0.0051
     in X         0.0361    0.0358    0.0156    0.0839    0.0284    0.0015
     in Y         0.0129    0.0108    0.0212    0.0669    0.0131    0.0024
     in Z         0.0119    0.0165    0.0044    0.0005    0.0044    0.0012
  Raman Intsty    0.0526    0.2619    0.0000    1.2467    0.0367    0.0134

     1 x       0.287869  0.057626 -0.270459 -0.008513  0.069566  0.007939
     1 y       0.210304  0.008930  0.315431 -0.115024 -0.133057  0.054983
     1 z       0.080580  0.089314  0.142969  0.237668  0.425168 -0.106291
     2 x       0.071907  0.070360  0.014356 -0.067152  0.171794  0.261880
     2 y       0.055822  0.054150 -0.016744 -0.106622  0.242945  0.058945
     2 z       0.012872  0.013634 -0.007588  0.108208 -0.211023  0.365360
     3 x       0.102001  0.105387  0.004395 -0.231644 -0.035529 -0.224061
     3 y       0.050787  0.040337 -0.005128 -0.078817  0.011379 -0.064752
     3 z       0.080911  0.110367 -0.002325 -0.264315 -0.092317 -0.281001
     4 x       0.077367  0.074960  0.005325 -0.146911 -0.000024 -0.212067
     4 y       0.058683  0.053040 -0.006212 -0.132856 -0.009425 -0.202895
     4 z       0.016886  0.024782 -0.002815  0.015206  0.020749  0.046474
     5 x      -0.334935  0.210620  0.049877 -0.050335 -0.301693  0.020238
     5 y      -0.203371 -0.251534 -0.117951  0.067953  0.288054 -0.058743
     5 z      -0.107606  0.222988  0.487108  0.153011  0.217536 -0.106635
     6 x      -0.011694  0.000896  0.001955  0.049283  0.022030  0.082830
     6 y      -0.008558 -0.013098 -0.002280  0.072162  0.054343  0.147415
     6 z      -0.003241  0.030594 -0.001034 -0.065979 -0.078224 -0.168553
     7 x       0.005886  0.021891  0.000800 -0.033320  0.049870  0.397597
     7 y      -0.059608 -0.203497  0.028660 -0.116058  0.006101 -0.216001
     7 z       0.035017 -0.504525  0.155343 -0.098132 -0.064515  0.059447
     8 x       0.122195 -0.123736 -0.001640  0.567809 -0.285068 -0.180661
     8 y       0.172374 -0.068790  0.001917  0.468920 -0.266369 -0.117034
     8 z      -0.149162 -0.082307  0.000868  0.039566  0.048417 -0.083551
     9 x      -0.037220 -0.376588 -0.087738 -0.149934 -0.008363 -0.070715
     9 y      -0.009330  0.261245  0.072733  0.019947  0.074018  0.330185
     9 z       0.057807 -0.293882 -0.109386 -0.036487 -0.033732  0.307003
    10 x      -0.303975 -0.081925 -0.102951  0.109135  0.268564 -0.089714
    10 y      -0.239480  0.089656  0.179851 -0.118034 -0.377026  0.069492
    10 z      -0.123971  0.377629 -0.459052  0.068718 -0.083908 -0.048512
    11 x      -0.054796  0.034359  0.218809  0.131462  0.066823 -0.016174
    11 y      -0.246355  0.007605 -0.255192  0.143067  0.073355 -0.018853
    11 z       0.439873  0.048217 -0.115665 -0.066953 -0.035432  0.011000
    12 x      -0.013100 -0.038574  0.215507 -0.110990 -0.057414  0.014138
    12 y       0.157999  0.002136 -0.251343 -0.047057  0.012443  0.007834
    12 z      -0.373381 -0.077688 -0.113920 -0.106138 -0.136065  0.009462


  Frequency     572.3796  581.8625  646.0679  782.9161  783.1546  847.3416
  IR Intensity    0.1265    0.0966    0.0780    0.0342    0.0136    0.0225
     in X         0.0019    0.0366    0.0260    0.0130    0.0083    0.0068
     in Y         0.0130    0.0498    0.0013    0.0176    0.0049    0.0106
     in Z         0.1117    0.0102    0.0507    0.0036    0.0004    0.0051
  Raman Intsty    1.4892    0.0000    0.0287    0.0000    0.1170    0.0007

     1 x       0.033715  0.415311 -0.001084  0.061503  0.008005 -0.002692
     1 y      -0.261721 -0.484364 -0.023608 -0.071670  0.026053  0.002086
     1 z       0.641167 -0.219555  0.050037 -0.032575 -0.041821 -0.009694
     2 x       0.037104  0.001379 -0.077249  0.402199  0.469475  0.038642
     2 y       0.060907 -0.001611 -0.030332 -0.467860  0.174125 -0.006081
     2 z      -0.064190 -0.000728 -0.079211 -0.211331  0.507338  0.086519
     3 x       0.000717  0.025813 -0.241519  0.024515 -0.114250 -0.433958
     3 y      -0.000935 -0.030105 -0.026705 -0.028780  0.022440 -0.505168
     3 z       0.003416 -0.013645 -0.397972 -0.013510 -0.265433  0.293623
     4 x      -0.020947 -0.002569  0.389936 -0.001119  0.028944  0.384251
     4 y      -0.021608  0.002998  0.367336  0.001405  0.025157  0.358166
     4 z       0.008047  0.001358 -0.072800  0.000616 -0.000760 -0.063322
     5 x       0.200355 -0.244315  0.006942 -0.009048 -0.007950 -0.000206
     5 y      -0.118598  0.189052  0.004578 -0.006225 -0.012138 -0.000741
     5 z      -0.433068  0.398277 -0.033032  0.046322 -0.004759 -0.002526
     6 x       0.013792 -0.002577 -0.160606 -0.001814 -0.039476  0.109595
     6 y       0.028347  0.003004 -0.355925  0.001871 -0.098308  0.242340
     6 z      -0.036451  0.001363  0.481457  0.001164  0.142207 -0.327353
     7 x      -0.042136  0.094138  0.183356 -0.470344 -0.381817 -0.027477
     7 y       0.031123 -0.028864 -0.097186  0.230300  0.180924  0.027544
     7 z       0.008408  0.064486  0.024940 -0.073067 -0.061929 -0.010112
     8 x      -0.029500 -0.009256 -0.000607 -0.016024 -0.059395 -0.004673
     8 y      -0.030501  0.010796 -0.002753  0.018505 -0.039098 -0.001211
     8 z       0.011489  0.004893  0.004924  0.008373 -0.026232 -0.006166
     9 x       0.020658 -0.023135 -0.031459 -0.060123  0.042753  0.013631
     9 y      -0.042116 -0.053945  0.153350  0.387482 -0.315319 -0.020400
     9 z      -0.024791 -0.102018  0.138493  0.352585 -0.287447 -0.031842
    10 x      -0.229714 -0.267361 -0.007502 -0.010908 -0.014522 -0.001716
    10 y       0.382990  0.407702  0.021423  0.029428 -0.004530  0.001021
    10 z      -0.205742 -0.127783 -0.025397 -0.035803 -0.001145 -0.001728
    11 x       0.070217 -0.036422  0.000344 -0.006172 -0.001954  0.000149
    11 y       0.052728  0.042475  0.002671  0.007190 -0.002802  0.000034
    11 z       0.016503  0.019252 -0.005242  0.003265  0.002434  0.000205
    12 x      -0.067971 -0.035806  0.000744 -0.006226  0.000580  0.000725
    12 y      -0.041955  0.041763  0.002605  0.007264  0.000834 -0.000015
    12 z      -0.036013  0.018929 -0.004340  0.003290 -0.000795  0.001405




--------------------------------------------------------------------------------
  Vibrational properties (for cluster):  Temperature  =       0.000 K
--------------------------------------------------------------------------------
  Zero point energy            =        0.460216 eV
--------------------------------------------------------------------------------

  Phonon density of states : 

--------------------------------------------------------------------------------
 Frequency (cm-1) Density of States                                             
--------------------------------------------------------------------------------
    0.00000 |************************************************************  0.080
   13.23971 |******************************                                0.040
   26.47943 |                                                              0.000
   39.71914 |                                                              0.000
   52.95886 |******************************                                0.040
   66.19857 |******************************                                0.040
   79.43829 |                                                              0.000
   92.67800 |                                                              0.000
  105.91771 |******************************                                0.040
  119.15743 |                                                              0.000
  132.39714 |******************************                                0.040
  145.63686 |************************************************************  0.080
  158.87657 |******************************                                0.040
  172.11628 |************************************************************  0.080
  185.35600 |                                                              0.000
  198.59571 |************************************************************  0.080
  211.83543 |                                                              0.000
  225.07514 |                                                              0.000
  238.31486 |******************************                                0.040
  251.55457 |                                                              0.000
  264.79428 |************************************************************  0.080
  278.03400 |                                                              0.000
  291.27371 |                                                              0.000
  304.51343 |                                                              0.000
  317.75314 |                                                              0.000
  330.99286 |                                                              0.000
  344.23257 |******************************                                0.040
  357.47228 |                                                              0.000
  370.71200 |                                                              0.000
  383.95171 |                                                              0.000
  397.19143 |                                                              0.000
  410.43114 |******************************                                0.040
  423.67086 |                                                              0.000
  436.91057 |                                                              0.000
  450.15028 |                                                              0.000
  463.39000 |                                                              0.000
  476.62971 |                                                              0.000
  489.86943 |                                                              0.000
  503.10914 |                                                              0.000
  516.34885 |                                                              0.000
  529.58857 |                                                              0.000
  542.82828 |                                                              0.000
  556.06800 |                                                              0.000
  569.30771 |************************************************************  0.080
  582.54743 |                                                              0.000
  595.78714 |                                                              0.000
  609.02685 |                                                              0.000
  622.26657 |                                                              0.000
  635.50628 |******************************                                0.040
  648.74600 |                                                              0.000
  661.98571 |                                                              0.000
  675.22543 |                                                              0.000
  688.46514 |                                                              0.000
  701.70485 |                                                              0.000
  714.94457 |                                                              0.000
  728.18428 |                                                              0.000
  741.42400 |                                                              0.000
  754.66371 |                                                              0.000
  767.90343 |                                                              0.000
  781.14314 |************************************************************  0.080
  794.38285 |                                                              0.000
  807.62257 |                                                              0.000
  820.86228 |                                                              0.000
  834.10200 |******************************                                0.040
--------------------------------------------------------------------------------



  XYZ File written as 001/5/sp_mod_-60/sp_mod_-60_eig.xyz


  Time to end of properties =       0.0137 seconds


  Peak dynamic memory used =       0.64 MB 


  Timing analysis for GULP :

--------------------------------------------------------------------------------
  Task / Subroutine                                          Time (Seconds)
--------------------------------------------------------------------------------
  Calculation of phonons                                          0.0040
--------------------------------------------------------------------------------
  Total CPU time                                                  0.0138
--------------------------------------------------------------------------------


  Job Finished at 10:30.01 17th May        2022                               

