********************************************************************************
*                       GENERAL UTILITY LATTICE PROGRAM                        *
*                                 Julian Gale                                  *
*                       Curtin Institute for Computation                       *
*                           Department of Chemistry                            *
*                    Curtin University, Western Australia                      *
********************************************************************************
* Version = 5.1.1 * Last modified =  24th November 2018                        *
********************************************************************************
*  optimise     - perform optimisation run                                     *
*  conp         - constant pressure calculation                                *
*  shell        - only shells and radii to be optimised                        *
*  phonon       - calculate phonons for final geometry                         *
*  eigenvectors - output phonon eigenvectors                                   *
********************************************************************************

  Job Started  at 14:38.43 25th May        2022                               

  Number of CPUs =     1

  Host name      = login03                                 


  Total number of configurations input =      1

********************************************************************************
*  Input for Configuration =   1                                               *
********************************************************************************

  Formula = Al3F9                                                       

  Number of irreducible atoms/shells =      21


  Total number atoms/shells =      21

  Dimensionality = 0               :  Cluster


  Charge on cluster =  -0.000000


  Initial cluster dipoles : x =      0.075952 e.Angs
                            y =      0.071354 e.Angs
                            z =     -0.013747 e.Angs

  Temperature of configuration =  0.000     K 

  Symmetry number =      1

  Cartesian coordinates of cluster :

--------------------------------------------------------------------------------
   No.  Atomic       x           y          z         Charge      Occupancy
        Label      (Angs)      (Angs)     (Angs)        (e)         (Frac)  
--------------------------------------------------------------------------------
      1 Al    c      1.2831      0.0510      2.4401     3.00000    1.000000    
      2 Al    c      1.3439      1.2523     -0.0952     3.00000    1.000000    
      3 Al    c     -0.3163      0.8367     -2.3191     3.00000    1.000000    
      4 F     c     -1.6680     -0.3699     -2.2138     0.59000    1.000000    
      5 F     c      2.1774     -0.5806      0.8594     0.59000    1.000000    
      6 F     c      0.0528      1.8234     -3.7978     0.59000    1.000000    
      7 F     c     -0.5977      2.0442     -0.8494     0.59000    1.000000    
      8 F     c      2.7452      2.5687     -0.3488     0.59000    1.000000    
      9 F     c      1.2711     -0.1354     -1.8373     0.59000    1.000000    
     10 F     c      0.3086      1.5990      1.8473     0.59000    1.000000    
     11 F     c      2.5468      0.5983      3.6233     0.59000    1.000000    
     12 F     c      0.0197     -1.1990      2.8080     0.59000    1.000000    
     13 F     s     -1.6680 *   -0.3699 *   -2.2138 *  -1.59000    1.000000    
     14 F     s      2.1774 *   -0.5806 *    0.8594 *  -1.59000    1.000000    
     15 F     s      0.0528 *    1.8234 *   -3.7978 *  -1.59000    1.000000    
     16 F     s     -0.5977 *    2.0442 *   -0.8494 *  -1.59000    1.000000    
     17 F     s      2.7452 *    2.5687 *   -0.3488 *  -1.59000    1.000000    
     18 F     s      1.2711 *   -0.1354 *   -1.8373 *  -1.59000    1.000000    
     19 F     s      0.3086 *    1.5990 *    1.8473 *  -1.59000    1.000000    
     20 F     s      2.5468 *    0.5983 *    3.6233 *  -1.59000    1.000000    
     21 F     s      0.0197 *   -1.1990 *    2.8080 *  -1.59000    1.000000    
--------------------------------------------------------------------------------


  Brillouin zone sampling points :

--------------------------------------------------------------------------------
  Point number          x          y          z            Weight
--------------------------------------------------------------------------------
        1           0.000000   0.000000   0.000000     1.00000000
--------------------------------------------------------------------------------


********************************************************************************
*  General input information                                                   *
********************************************************************************

  Species output for all configurations : 

--------------------------------------------------------------------------------
  Species    Type    Atomic    Atomic    Charge       Radii (Angs)     Library
                     Number     Mass       (e)     Cova   Ionic  VDW   Symbol
--------------------------------------------------------------------------------
    Al       Core       13      26.98   3.000000   1.350  0.000  2.050          
    F        Core        9      19.00   0.590000   0.710  0.000  1.300          
    F        Shell       9       0.00  -1.590000   0.710  0.000  1.300          
--------------------------------------------------------------------------------


  Accuracy factor for short range sums = 12.000

  Time limit = Infinity

  Maximum range for interatomic potentials =    100000.000000 Angstroms

  General interatomic potentials :

--------------------------------------------------------------------------------
Atom  Types   Potential      Parameter       Value         Units   Cutoffs(Ang)
  1     2                                                            Min /  Max 
--------------------------------------------------------------------------------
Al   c F    s Buckingham    Buckingham A     3760.0008    eV        0.000 10.000
                            Buckingham rho  0.22200000    Ang       
                            Buckingham C     0.0000000    eV*Ang^6  
--------------------------------------------------------------------------------
F    s F    s Buck 4 range  Buck4 A          1127.7000    eV        0.000 12.000
                            Buck4 rho       0.27530000    Ang       
                            Buck4 C          15.830000    eV*Ang^6  
                            Buck4 minimum    2.7900000    Ang       
--------------------------------------------------------------------------------
F    c F    s Spring (c-s)  Spring k 2       20.770000    eV*Ang^-2 0.000  0.800
                            Spring k 4       0.0000000    eV*Ang^-4 
--------------------------------------------------------------------------------

********************************************************************************
*  Output for configuration   1                                                *
********************************************************************************


  Components of energy : 

--------------------------------------------------------------------------------
  Interatomic potentials     =           7.74012729 eV    
  Monopole - monopole (real) =        -168.24802961 eV    
--------------------------------------------------------------------------------
  Total lattice energy       =        -160.50790232 eV    
--------------------------------------------------------------------------------
  Total lattice energy       =          -15486.5590 kJ/mol
--------------------------------------------------------------------------------


  Number of variables =       27

  Maximum number of calculations  =          2000
  Maximum Hessian update interval =            10
  Maximum step size               =   1.000000000
  Maximum parameter tolerance     =   0.000001000
  Maximum function  tolerance     =   0.000010000
  Maximum gradient  tolerance     =   0.000000010
  Maximum gradient  component     =   0.010000000

  Symmetry not applied to optimisation

  Newton-Raphson optimiser to be used

  BFGS hessian update to be used

  Lower half triangular hessian to be used

  Minimiser to switch to RFO
  When gradient norm is less than     0.010000

  Shell only optimisation

  Start of cluster optimisation :

  Cycle:      0 Energy:      -160.507902  Gnorm:      1.555832  CPU:    0.004
  ** Hessian calculated **
  Cycle:      1 Energy:      -183.462924  Gnorm:      0.446766  CPU:    0.005
  ** Hessian calculated **
  Cycle:      2 Energy:      -184.991836  Gnorm:      0.008585  CPU:    0.007
  ** Hessian has required structure
  Cycle:      3 Energy:      -184.992163  Gnorm:      0.004115  CPU:    0.009
  ** Hessian has required structure
  Cycle:      4 Energy:      -184.992176  Gnorm:      0.004250  CPU:    0.010
  ** Hessian has required structure
  Cycle:      5 Energy:      -184.992179  Gnorm:      0.004206  CPU:    0.012
  ** Hessian has required structure
  Cycle:      6 Energy:      -184.992179  Gnorm:      0.004152  CPU:    0.013
  ** Hessian has required structure
  Cycle:      7 Energy:      -184.992180  Gnorm:      0.004145  CPU:    0.014
  ** Hessian has required structure
  Cycle:      8 Energy:      -184.992203  Gnorm:      0.003541  CPU:    0.016
  ** Hessian has required structure
  Cycle:      9 Energy:      -184.992294  Gnorm:      0.000765  CPU:    0.017
  ** Hessian has required structure
  Cycle:     10 Energy:      -184.992298  Gnorm:      0.000047  CPU:    0.018
  ** Hessian has required structure
  Cycle:     11 Energy:      -184.992298  Gnorm:      0.000043  CPU:    0.020
  ** Hessian has required structure
  Cycle:     12 Energy:      -184.992298  Gnorm:      0.000000  CPU:    0.021
  ** Hessian has required structure
  Cycle:     13 Energy:      -184.992298  Gnorm:      0.000000  CPU:    0.023
  ** Hessian has required structure
  Cycle:     14 Energy:      -184.992298  Gnorm:      0.000000  CPU:    0.024
  ** Hessian has required structure
  Cycle:     15 Energy:      -184.992298  Gnorm:      0.000000  CPU:    0.026
  ** Hessian has required structure
  Cycle:     16 Energy:      -184.992298  Gnorm:      0.000000  CPU:    0.027
  ** Hessian has required structure
  Cycle:     17 Energy:      -184.992298  Gnorm:      0.000000  CPU:    0.029
  ** Hessian has required structure
  Cycle:     18 Energy:      -184.992298  Gnorm:      0.000000  CPU:    0.030
  ** Hessian has required structure
  Cycle:     19 Energy:      -184.992298  Gnorm:      0.000000  CPU:    0.032
  ** Hessian has required structure
  Cycle:     20 Energy:      -184.992298  Gnorm:      0.000000  CPU:    0.033
  ** Hessian has required structure
  Cycle:     21 Energy:      -184.992298  Gnorm:      0.000000  CPU:    0.035
  ** Hessian calculated **

  XYZ File written as 001/4/sp_mod_60/sp_mod_60_eig.xyz



  **** Optimisation achieved ****


  Final energy =    -184.99229799 eV
  Final Gnorm  =       0.00000003

  Components of energy : 

--------------------------------------------------------------------------------
  Interatomic potentials     =          39.10642029 eV    
  Monopole - monopole (real) =        -224.09871828 eV    
--------------------------------------------------------------------------------
  Total lattice energy       =        -184.99229799 eV    
--------------------------------------------------------------------------------
  Total lattice energy       =          -17848.9289 kJ/mol
--------------------------------------------------------------------------------

  Final cartesian coordinates of atoms :

--------------------------------------------------------------------------------
   No.  Atomic        x           y          z          Radius
        Label       (Angs)      (Angs)     (Angs)       (Angs) 
--------------------------------------------------------------------------------
     1  Al    c     1.283053    0.051014    2.440071    0.000000
     2  Al    c     1.343890    1.252286   -0.095228    0.000000
     3  Al    c    -0.316339    0.836706   -2.319060    0.000000
     4  F     c    -1.667988   -0.369948   -2.213776    0.000000
     5  F     c     2.177408   -0.580588    0.859443    0.000000
     6  F     c     0.052796    1.823422   -3.797763    0.000000
     7  F     c    -0.597688    2.044195   -0.849369    0.000000
     8  F     c     2.745166    2.568712   -0.348821    0.000000
     9  F     c     1.271134   -0.135387   -1.837251    0.000000
    10  F     c     0.308584    1.598992    1.847326    0.000000
    11  F     c     2.546768    0.598273    3.623273    0.000000
    12  F     c     0.019684   -1.199008    2.808036    0.000000
    13  F     s    -1.465489   -0.188437   -2.231169    0.000000
    14  F     s     1.958932   -0.256913    0.916530    0.000000
    15  F     s    -0.003283    1.673515   -3.573106    0.000000
    16  F     s    -0.300615    1.794357   -0.920679    0.000000
    17  F     s     2.469699    2.309925   -0.298969    0.000000
    18  F     s     1.093788    0.168083   -1.657778    0.000000
    19  F     s     0.564526    1.369359    1.653629    0.000000
    20  F     s     2.354776    0.515132    3.443510    0.000000
    21  F     s     0.209984   -1.011504    2.754343    0.000000
--------------------------------------------------------------------------------


  Final Cartesian derivatives :

--------------------------------------------------------------------------------
   No.  Atomic          x             y             z           Radius
        Label       (eV/Angs)     (eV/Angs)    (eV/Angs)      (eV/Angs)
--------------------------------------------------------------------------------
      1 Al    c       0.000000      0.000000      0.000000      0.000000
      2 Al    c       0.000000      0.000000      0.000000      0.000000
      3 Al    c       0.000000      0.000000      0.000000      0.000000
      4 F     c       0.000000      0.000000      0.000000      0.000000
      5 F     c       0.000000      0.000000      0.000000      0.000000
      6 F     c       0.000000      0.000000      0.000000      0.000000
      7 F     c       0.000000      0.000000      0.000000      0.000000
      8 F     c       0.000000      0.000000      0.000000      0.000000
      9 F     c       0.000000      0.000000      0.000000      0.000000
     10 F     c       0.000000      0.000000      0.000000      0.000000
     11 F     c       0.000000      0.000000      0.000000      0.000000
     12 F     c       0.000000      0.000000      0.000000      0.000000
     13 F     s       0.000000      0.000000     -0.000000      0.000000
     14 F     s      -0.000000     -0.000000      0.000000      0.000000
     15 F     s       0.000000      0.000000      0.000000      0.000000
     16 F     s      -0.000000     -0.000000     -0.000000      0.000000
     17 F     s      -0.000000     -0.000000      0.000000      0.000000
     18 F     s      -0.000000      0.000000     -0.000000      0.000000
     19 F     s       0.000000     -0.000000      0.000000      0.000000
     20 F     s       0.000000      0.000000     -0.000000      0.000000
     21 F     s       0.000000      0.000000      0.000000      0.000000
--------------------------------------------------------------------------------
  Maximum abs         0.000000      0.000000      0.000000      0.000000
--------------------------------------------------------------------------------


  Born effective charge tensors : 

-------------------------------------------------------------------------------
  Atom             x           y             z
-------------------------------------------------------------------------------
    1 Al    x       0.6565     -0.3400     -0.1562
            y      -0.3380      0.8563     -0.0229
            z      -0.1608     -0.0268      0.8907
-------------------------------------------------------------------------------
    2 Al    x       1.5286     -0.5371      0.3824
            y      -0.5371      1.5163     -0.0530
            z       0.3824     -0.0530      2.7931
-------------------------------------------------------------------------------
    3 Al    x       0.8396     -0.2969      0.0950
            y      -0.2990      0.7718      0.2372
            z       0.0996      0.2411      0.7922
-------------------------------------------------------------------------------
    4 F     x      -0.2249      0.2722     -0.0770
            y       0.2602     -0.2632     -0.0339
            z      -0.0506     -0.0112     -0.5727
-------------------------------------------------------------------------------
    5 F     x      -0.3412      0.1400     -0.1229
            y       0.0939     -0.5242      0.1772
            z      -0.0916      0.1920     -0.4458
-------------------------------------------------------------------------------
    6 F     x      -0.5122      0.0497     -0.1133
            y       0.0674     -0.3440     -0.2393
            z      -0.1524     -0.2729     -0.1966
-------------------------------------------------------------------------------
    7 F     x      -0.5775      0.0904     -0.1652
            y       0.1376     -0.3211      0.0894
            z      -0.1904      0.0680     -0.4125
-------------------------------------------------------------------------------
    8 F     x      -0.2687      0.2506     -0.0825
            y       0.2506     -0.2903     -0.0269
            z      -0.0825     -0.0269     -0.6141
-------------------------------------------------------------------------------
    9 F     x      -0.2808     -0.0174     -0.0278
            y      -0.0343     -0.3984     -0.1628
            z      -0.0696     -0.1989     -0.6319
-------------------------------------------------------------------------------
   10 F     x      -0.3409      0.0029      0.1092
            y       0.0185     -0.2767     -0.0539
            z       0.1448     -0.0114     -0.6936
-------------------------------------------------------------------------------
   11 F     x      -0.2368      0.1292      0.2324
            y       0.1114     -0.4711      0.1243
            z       0.2715      0.1579     -0.3449
-------------------------------------------------------------------------------
   12 F     x      -0.2417      0.2565     -0.0740
            y       0.2685     -0.2555     -0.0353
            z      -0.1005     -0.0580     -0.5637
-------------------------------------------------------------------------------




  Moment of inertia tensor (10^-46 x kgm^2): 

-------------------------------------------------------------------------------
                x           y           z           Principal axis system
-------------------------------------------------------------------------------
       x        253.46       -6.41      -55.65           91.011532
       y         -6.41      270.46       31.78          257.515986
       z        -55.65       31.78      114.96          290.354367
-------------------------------------------------------------------------------
  Centre of mass (Ang) =     0.764474     0.707954     0.009631
-------------------------------------------------------------------------------


  Vibrational Frequency Calculation : 

--------------------------------------------------------------------------------

  Frequencies (cm-1) and Eigenvectors : 

  Frequency    -122.9640   -0.0000    0.0000    0.0000   20.4014   30.4240
  IR Intensity    0.0000    0.0000    0.0000    0.0000    0.0005    0.0026
     in X         0.0000    0.0000    0.0000    0.0000    0.0001    0.0014
     in Y         0.0000    0.0000    0.0000    0.0000    0.0000    0.0012
     in Z         0.0000    0.0000    0.0000    0.0000    0.0005    0.0000
  Raman Intsty    0.0000    0.0000    0.0000    0.0000    0.0000    0.0113

     1 x       0.165257 -0.144444  0.167220  0.241376 -0.204321  0.097191
     1 y      -0.192737 -0.290705 -0.119379 -0.091260 -0.178465  0.034071
     1 z      -0.087357  0.041421 -0.254706  0.201241  0.007226  0.108688
     2 x      -0.000000 -0.144444  0.167220  0.241376  0.028323 -0.161433
     2 y      -0.000000 -0.290705 -0.119379 -0.091260 -0.013918 -0.151655
     2 z       0.000000  0.041421 -0.254706  0.201241  0.084288  0.029213
     3 x      -0.165257 -0.144444  0.167220  0.241376  0.185472  0.017174
     3 y       0.192737 -0.290705 -0.119379 -0.091260  0.187727  0.073366
     3 z       0.087357  0.041421 -0.254706  0.201241 -0.063321 -0.129383
     4 x       0.092466 -0.121215  0.140328  0.202558  0.078491 -0.080643
     4 y      -0.107842 -0.243954 -0.100180 -0.076584  0.221715  0.140590
     4 z      -0.048879  0.034759 -0.213745  0.168878 -0.340687 -0.462740
     5 x       0.246300 -0.121215  0.140328  0.202558 -0.011211 -0.114639
     5 y      -0.335082 -0.243954 -0.100180 -0.076584 -0.035999 -0.109064
     5 z       0.121585  0.034759 -0.213745  0.168878  0.053055  0.031912
     6 x       0.106410 -0.121215  0.140328  0.202558  0.383326  0.296535
     6 y      -0.124104 -0.243954 -0.100180 -0.076584  0.288146  0.223452
     6 z      -0.056249  0.034759 -0.213745  0.168878  0.089413  0.067963
     7 x      -0.340798 -0.121215  0.140328  0.202558  0.045832 -0.118090
     7 y       0.246306 -0.243954 -0.100180 -0.076584  0.017589 -0.109574
     7 z      -0.104484  0.034759 -0.213745  0.168878  0.042731  0.010204
     8 x      -0.000000 -0.121215  0.140328  0.202558  0.029840 -0.135637
     8 y      -0.000000 -0.243954 -0.100180 -0.076584 -0.014663 -0.127423
     8 z       0.000000  0.034759 -0.213745  0.168878  0.088800  0.024545
     9 x      -0.093222 -0.121215  0.140328  0.202558  0.043764 -0.121356
     9 y       0.259884 -0.243954 -0.100180 -0.076584  0.020001 -0.105767
     9 z       0.333912  0.034759 -0.213745  0.168878  0.043824  0.011929
    10 x       0.187720 -0.121215  0.140328  0.202558 -0.013279 -0.111373
    10 y      -0.171108 -0.243954 -0.100180 -0.076584 -0.033588 -0.112871
    10 z      -0.351013  0.034759 -0.213745  0.168878  0.054148  0.030185
    11 x      -0.106410 -0.121215  0.140328  0.202558 -0.282710  0.219484
    11 y       0.124104 -0.243954 -0.100180 -0.076584 -0.337557  0.261324
    11 z       0.056249  0.034759 -0.213745  0.168878  0.209942 -0.161354
    12 x      -0.092465 -0.121215  0.140328  0.202558 -0.285341  0.221808
    12 y       0.107841 -0.243954 -0.100180 -0.076584 -0.120096 -0.007975
    12 z       0.048878  0.034759 -0.213745  0.168878 -0.274823  0.437206


  Frequency      39.4906   58.9145   85.4528   93.6153  115.0810  118.4165
  IR Intensity    0.0007    0.0000    0.0000    0.0000    0.0050    0.0058
     in X         0.0003    0.0000    0.0000    0.0000    0.0005    0.0022
     in Y         0.0004    0.0000    0.0000    0.0000    0.0001    0.0030
     in Z         0.0001    0.0000    0.0000    0.0000    0.0044    0.0006
  Raman Intsty    0.0000    0.0000    0.0000    0.0000    0.0000    0.0000

     1 x       0.145047  0.198945  0.009824  0.081186  0.216699  0.101660
     1 y      -0.169166 -0.232027 -0.011458 -0.094686  0.175626 -0.118570
     1 z      -0.076674 -0.105165 -0.005193 -0.042916  0.022447 -0.053740
     2 x      -0.216237  0.000001 -0.000002 -0.127125 -0.007308 -0.262531
     2 y       0.252195 -0.000001  0.000003  0.148265  0.003593  0.306186
     2 z       0.114307 -0.000000  0.000001  0.067200 -0.021736  0.138778
     3 x       0.145045 -0.198946 -0.009821  0.081187 -0.177627  0.101665
     3 y      -0.169165  0.232028  0.011455 -0.094687 -0.194823 -0.118565
     3 z      -0.076672  0.105165  0.005192 -0.042916  0.093810 -0.053741
     4 x      -0.260508 -0.246532  0.289846  0.227327 -0.249526  0.055738
     4 y       0.303827  0.287527 -0.338044 -0.265129 -0.086443 -0.065002
     4 z       0.137709  0.130319 -0.153216 -0.120168 -0.281323 -0.029459
     5 x       0.077319  0.091085 -0.136437  0.174690  0.234272 -0.007153
     5 y      -0.294475 -0.055695 -0.120962  0.003716  0.183175  0.067901
     5 z       0.041592 -0.164962 -0.041189  0.023286  0.029591 -0.107438
     6 x      -0.072425 -0.244553 -0.280783 -0.300769  0.089148  0.208840
     6 y       0.084466  0.285219  0.327474  0.350783 -0.028177 -0.243568
     6 z       0.038284  0.129274  0.148425  0.158990  0.230799 -0.110399
     7 x       0.293318 -0.019437 -0.116909 -0.006965 -0.184458 -0.086597
     7 y      -0.091554  0.123007 -0.117051 -0.166939 -0.210200 -0.006733
     7 z       0.002503  0.151995  0.087040  0.056159  0.105371 -0.093060
     8 x      -0.026431 -0.000000 -0.000002 -0.134617 -0.079516 -0.413818
     8 y       0.030827 -0.000000  0.000002  0.157002  0.039066  0.482631
     8 z       0.013972  0.000000  0.000001  0.071160 -0.236590  0.218754
     9 x       0.008822 -0.164864  0.096903  0.126713 -0.188241  0.064211
     9 y      -0.260828  0.091940  0.140383  0.027277 -0.205785  0.032852
     9 z      -0.162218 -0.054572 -0.076464 -0.119460  0.107374  0.104893
    10 x       0.224825  0.093213  0.156448 -0.054941  0.230487 -0.015244
    10 y      -0.057907 -0.159250  0.097623 -0.143376  0.187588 -0.041792
    10 z      -0.201310  0.067540  0.030611 -0.086587  0.031595  0.119273
    11 x      -0.072424  0.244554  0.280774 -0.300777  0.067314  0.208841
    11 y       0.084466 -0.285219 -0.327463  0.350791 -0.048689 -0.243568
    11 z       0.038284 -0.129274 -0.148421  0.158994  0.234750 -0.110399
    12 x      -0.260505  0.246534 -0.289842  0.227336  0.042668  0.055734
    12 y       0.303823 -0.287529  0.338038 -0.265138  0.188059 -0.065004
    12 z       0.137704 -0.130321  0.153214 -0.120173 -0.334203 -0.029458


  Frequency     153.0502  168.5763  206.1965  211.3816  211.5897  217.8271
  IR Intensity    0.0066    0.0056    0.0016    0.0000    0.0927    0.0098
     in X         0.0034    0.0006    0.0008    0.0000    0.0092    0.0037
     in Y         0.0030    0.0001    0.0007    0.0000    0.0022    0.0050
     in Z         0.0001    0.0049    0.0000    0.0000    0.0813    0.0010
  Raman Intsty    0.3862    0.0000    0.2007    0.0000    0.0000    0.0000

     1 x       0.142093  0.050295 -0.187872  0.022445  0.077252  0.028278
     1 y       0.034581  0.055886 -0.104013 -0.026171  0.136386 -0.032981
     1 z       0.192508 -0.028155 -0.125922 -0.011869 -0.154765 -0.014948
     2 x      -0.043706  0.040100  0.292872 -0.000002 -0.079967 -0.157022
     2 y      -0.041060 -0.019699  0.275136  0.000003  0.039288  0.183133
     2 z       0.007910  0.119320 -0.052999 -0.000007 -0.237959  0.083005
     3 x       0.003827 -0.062367 -0.086542 -0.022448 -0.166456  0.028279
     3 y       0.102503 -0.049955 -0.153786  0.026171 -0.092569 -0.032981
     3 z      -0.218915 -0.007765  0.175587  0.011861 -0.110658 -0.014948
     4 x      -0.011119 -0.125563 -0.226398 -0.099743 -0.054222  0.139305
     4 y       0.099634  0.012622 -0.017402  0.116321 -0.172955 -0.162469
     4 z      -0.240858 -0.265382 -0.389897  0.052731  0.279004 -0.073639
     5 x       0.086290  0.017781  0.010094 -0.352545 -0.050650 -0.381188
     5 y       0.030977  0.016879  0.063554 -0.271723  0.055138 -0.175668
     5 z       0.150148 -0.040893 -0.063086 -0.125297 -0.174318 -0.134906
     6 x      -0.350564 -0.167396 -0.109344  0.130250  0.322166 -0.056556
     6 y      -0.112205 -0.107739 -0.159013 -0.151893  0.189538  0.065960
     6 z      -0.415618 -0.078965  0.143984 -0.068840  0.191295  0.029896
     7 x       0.005829 -0.025072  0.074715 -0.258470 -0.084775  0.163691
     7 y       0.055564 -0.023380  0.016118 -0.302285  0.023082  0.336218
     7 z      -0.166819 -0.033137  0.047742  0.235861 -0.168153 -0.233516
     8 x      -0.040090  0.262823  0.285568  0.000005  0.109211  0.113326
     8 y      -0.037663 -0.129110  0.268279 -0.000001 -0.053645 -0.132170
     8 z       0.007256  0.782050 -0.051685  0.000009  0.324956 -0.059906
     9 x      -0.016301 -0.040008  0.051468  0.235283 -0.067510 -0.243244
     9 y       0.081375 -0.005960  0.043227  0.329324  0.002907 -0.243437
     9 z      -0.155121 -0.025241  0.060031 -0.223616 -0.177274  0.275569
    10 x       0.108421  0.002846  0.033336  0.375724 -0.033389  0.301635
    10 y       0.005167  0.034299  0.036441  0.244690  0.034968  0.268449
    10 z       0.138450 -0.032997 -0.075374  0.113031 -0.183461  0.176959
    11 x      -0.047030  0.098169 -0.188030 -0.130247 -0.164025 -0.056555
    11 y      -0.261314  0.141746 -0.120352  0.151890 -0.267229  0.065959
    11 z       0.487572 -0.127026 -0.090173  0.068855  0.279277  0.029895
    12 x       0.142763 -0.056981  0.046595  0.099749  0.224784  0.139304
    12 y       0.024040  0.077051 -0.151512 -0.116326  0.089165 -0.162468
    12 z       0.217033 -0.277793  0.422431 -0.052717  0.228523 -0.073637


  Frequency     243.2572  275.1385  278.4227  280.7422  309.6023  326.5858
  IR Intensity    0.0231    0.0000    0.0003    0.0070    0.1655    0.0318
     in X         0.0088    0.0000    0.0000    0.0037    0.0627    0.0166
     in Y         0.0119    0.0000    0.0000    0.0032    0.0853    0.0147
     in Z         0.0024    0.0000    0.0003    0.0001    0.0175    0.0005
  Raman Intsty    0.0000    0.0000    0.0000    2.4024    0.0000    2.2321

     1 x      -0.092619  0.183435 -0.171959  0.097794 -0.125624  0.084285
     1 y       0.108020 -0.213937 -0.101111  0.168484  0.146514  0.018507
     1 z       0.048960 -0.096965 -0.102220 -0.186729  0.066408  0.118615
     2 x       0.343221  0.000000  0.037889 -0.061546 -0.220345  0.273744
     2 y      -0.400294  0.000001 -0.018612 -0.057819  0.256985  0.257176
     2 z      -0.181431 -0.000000  0.112738  0.011139  0.116481 -0.049554
     3 x      -0.092619 -0.183435  0.087471  0.204893 -0.125624 -0.000540
     3 y       0.108020  0.213936  0.142612  0.115877  0.146513  0.060173
     3 z       0.048960  0.096965 -0.149172  0.131949  0.066408 -0.133782
     4 x       0.020312  0.161203  0.178211  0.164506  0.134231  0.069152
     4 y      -0.023690 -0.188011  0.069003  0.172311 -0.156552  0.008032
     4 z      -0.010738 -0.085214  0.184884 -0.068974 -0.070957  0.113095
     5 x      -0.083582  0.039537  0.275203 -0.219869  0.027249 -0.228024
     5 y      -0.228074  0.144479  0.278855  0.013939 -0.119582 -0.240775
     5 z       0.080670 -0.345473 -0.020819 -0.323892  0.364010  0.080492
     6 x      -0.032118  0.149510 -0.015562 -0.175098  0.130224  0.019090
     6 y       0.037458 -0.174370  0.088654 -0.106161 -0.151879  0.085610
     6 z       0.016978 -0.079032 -0.225042 -0.097021 -0.068836 -0.152770
     7 x       0.242678  0.208767 -0.289656  0.065155  0.184893 -0.261472
     7 y       0.078430  0.088789 -0.251798 -0.159284  0.028517 -0.219113
     7 z       0.021625  0.300537  0.081400  0.351892  0.335480  0.008108
     8 x      -0.376456  0.000000  0.032107 -0.063122  0.072005  0.361517
     8 y       0.439056  0.000000 -0.015772 -0.059301 -0.083979  0.339625
     8 z       0.198999 -0.000000  0.095537  0.011424 -0.038064 -0.065422
     9 x      -0.136774 -0.249418 -0.260095  0.015970 -0.204365 -0.253736
     9 y      -0.201944 -0.041376 -0.286275 -0.101924 -0.005803 -0.228134
     9 z      -0.077607 -0.279051  0.065771  0.377887 -0.325191  0.004019
    10 x       0.189485  0.001115  0.304764 -0.170686 -0.046723 -0.235782
    10 y       0.104560 -0.191892  0.244379 -0.043423  0.142294 -0.231726
    10 z      -0.136651  0.323987 -0.036446 -0.349889 -0.353719  0.084591
    11 x      -0.032117 -0.149509 -0.128807 -0.093552  0.130225  0.113690
    11 y       0.037458  0.174371 -0.017731 -0.146221 -0.151878  0.039133
    11 z       0.016978  0.079032 -0.204550  0.145635 -0.068837  0.128733
    12 x       0.020313 -0.161205 -0.040636  0.189342  0.134231 -0.010432
    12 y      -0.023690  0.188010 -0.136591  0.160108 -0.156553  0.047131
    12 z      -0.010738  0.085214  0.224490  0.004941 -0.070957 -0.123721


  Frequency     327.1414  381.2843  443.0314  518.8457  523.7560  595.0360
  IR Intensity    0.2810    0.0096    0.1281    0.0016    0.0018    0.0000
     in X         0.0278    0.0050    0.0127    0.0008    0.0002    0.0000
     in Y         0.0067    0.0044    0.0031    0.0007    0.0000    0.0000
     in Z         0.2464    0.0002    0.1124    0.0000    0.0016    0.0000
  Raman Intsty    0.0000    0.7064    0.0000    4.0389    0.0000    0.0000

     1 x       0.027508  0.002809 -0.008178  0.000964 -0.001017  0.297119
     1 y      -0.058833  0.106773 -0.047793 -0.055756  0.053217 -0.346525
     1 z       0.181838 -0.230260  0.089976  0.124840 -0.119337 -0.157060
     2 x       0.141704 -0.008665 -0.216305 -0.000000  0.075327 -0.000001
     2 y      -0.069601 -0.008140  0.106259 -0.000001 -0.037004  0.000002
     2 z       0.421620  0.001568 -0.643634  0.000002  0.224141  0.000001
     3 x       0.090860  0.148380  0.064249 -0.078246 -0.074711 -0.297124
     3 y       0.000688  0.035262  0.020248 -0.016846 -0.016016  0.346532
     3 z       0.170364  0.202899  0.076869 -0.110856 -0.105999  0.157063
     4 x       0.042485  0.122920  0.093715 -0.244173 -0.273397  0.012072
     4 y       0.046618  0.129984  0.098101 -0.217344 -0.244443 -0.014081
     4 z      -0.022480 -0.054252 -0.039157  0.017618  0.022121 -0.006382
     5 x      -0.250578  0.241218 -0.137086  0.163626 -0.152369 -0.191246
     5 y       0.274082 -0.354154  0.219027 -0.115116  0.092631  0.158988
     5 z      -0.169023  0.012157  0.202742 -0.298101  0.243432  0.266939
     6 x      -0.010275 -0.073992 -0.055397  0.068438  0.078045  0.011705
     6 y      -0.065777 -0.115913 -0.069723  0.184303  0.202549 -0.013651
     6 z       0.125692  0.115767  0.049036 -0.277163 -0.299246 -0.006188
     7 x      -0.289748 -0.339053 -0.170488 -0.049359 -0.038130  0.097066
     7 y       0.237284  0.262244  0.187648  0.222467  0.199951 -0.247471
     7 z      -0.161938  0.005548  0.208787  0.277424  0.222756 -0.249899
     8 x      -0.027068 -0.027437  0.038205  0.030426 -0.010135  0.000000
     8 y       0.013313 -0.025775 -0.018768  0.028584  0.004978 -0.000000
     8 z      -0.080576  0.004965  0.113683 -0.005507 -0.030156 -0.000000
     9 x       0.074611  0.151797  0.208127  0.295737  0.256667  0.295250
     9 y      -0.187659 -0.310228 -0.253925 -0.180015 -0.143866 -0.210081
     9 z      -0.354536 -0.253921  0.008647  0.095002  0.066922  0.042517
    10 x       0.113780 -0.249632  0.241529 -0.181468  0.142431 -0.201062
    10 y      -0.150864  0.218316 -0.222546  0.287362 -0.251190  0.298555
    10 z      -0.361622  0.271626  0.002601 -0.115680  0.087598 -0.059560
    11 x       0.088741 -0.138858  0.080114  0.236199 -0.258700 -0.011705
    11 y       0.027239 -0.084048  0.057582  0.101889 -0.113805  0.013651
    11 z       0.107782 -0.077247  0.024512  0.222029 -0.238307  0.006187
    12 x      -0.051860  0.143199 -0.107779 -0.227335  0.256066 -0.012072
    12 y      -0.042010  0.120022 -0.091192 -0.225612  0.252960  0.014080
    12 z      -0.005414  0.006091 -0.002692  0.067712 -0.073698  0.006382


  Frequency     613.2912  703.7660  739.4420  741.3808  806.8236  808.7074
  IR Intensity    0.1472    0.0276    0.0074    0.0001    0.0015    0.0055
     in X         0.0558    0.0144    0.0007    0.0001    0.0001    0.0029
     in Y         0.0759    0.0127    0.0002    0.0001    0.0000    0.0025
     in Z         0.0156    0.0005    0.0065    0.0000    0.0013    0.0001
  Raman Intsty    0.0000    0.0157    0.0000    0.4562    0.0000    0.0086

     1 x      -0.292792 -0.009481 -0.007310  0.036008  0.415146  0.414307
     1 y       0.341478  0.119881 -0.228763  0.209599  0.290250  0.279780
     1 z       0.154773 -0.282431  0.490894 -0.394322  0.144968  0.166481
     2 x      -0.124165  0.399437 -0.074866 -0.334386  0.003142  0.047804
     2 y       0.144812  0.375251  0.036765 -0.314141 -0.001538  0.044910
     2 z       0.065635 -0.072288 -0.222742  0.060521  0.009337 -0.008652
     3 x      -0.292785  0.170555  0.317517  0.281706 -0.275655  0.261357
     3 y       0.341472  0.031439  0.076386  0.088888 -0.358706  0.354986
     3 z       0.154770  0.253282  0.432128  0.336800  0.269949 -0.288789
     4 x       0.019047 -0.132800 -0.201546 -0.186401  0.241371 -0.233186
     4 y      -0.022216 -0.113983 -0.171652 -0.159406  0.219236 -0.212873
     4 z      -0.010069  0.000259 -0.002554 -0.000924 -0.027091  0.028535
     5 x       0.178471 -0.058798  0.062689 -0.031439 -0.013350 -0.013714
     5 y      -0.150401 -0.007630 -0.020069  0.033996 -0.013569 -0.017381
     5 z      -0.266443  0.088331 -0.136457  0.112997 -0.010987 -0.014201
     6 x       0.018338  0.031082  0.035844  0.023293  0.074976 -0.075684
     6 y      -0.021386  0.101797  0.126674  0.086456  0.187269 -0.189617
     6 z      -0.009694 -0.165798 -0.211675 -0.146686 -0.271340  0.275181
     7 x       0.089298 -0.026777 -0.008871  0.010606  0.011823 -0.014974
     7 y      -0.234168 -0.072763 -0.087298 -0.053563  0.010081 -0.009571
     7 z      -0.250300 -0.072845 -0.123511 -0.109220 -0.015540  0.019395
     8 x       0.021306 -0.409890  0.006436  0.275516 -0.001483 -0.030043
     8 y      -0.024849 -0.385070 -0.003151  0.258833  0.000725 -0.028224
     8 z      -0.011263  0.074179  0.019128 -0.049861 -0.004406  0.005437
     9 x       0.285537 -0.099963 -0.128761 -0.088506  0.005549 -0.004318
     9 y      -0.202996  0.012592  0.052528  0.062030  0.017398 -0.021999
     9 z       0.052159 -0.034158 -0.060136 -0.056828 -0.012224  0.013762
    10 x       0.196372  0.014388 -0.057196  0.067679 -0.019626 -0.024370
    10 y      -0.286772 -0.092985  0.119751 -0.081605 -0.006250 -0.004953
    10 z       0.068297  0.049644 -0.073084  0.060602 -0.007670 -0.008569
    11 x       0.018338  0.132567 -0.165846  0.113570 -0.238334 -0.241327
    11 y      -0.021387  0.051943 -0.062807  0.042115 -0.107053 -0.108215
    11 z      -0.009693  0.136181 -0.175167  0.121927 -0.214676 -0.217774
    12 x       0.019048 -0.117735  0.176809 -0.164451 -0.230891 -0.224495
    12 y      -0.022216 -0.121382  0.183792 -0.170203 -0.224430 -0.217094
    12 z      -0.010069  0.045082 -0.071024  0.064421  0.058377  0.054290




--------------------------------------------------------------------------------
  Vibrational properties (for cluster):  Temperature  =       0.000 K
--------------------------------------------------------------------------------
  Zero point energy            =        0.656863 eV
--------------------------------------------------------------------------------

  Phonon density of states : 

--------------------------------------------------------------------------------
 Frequency (cm-1) Density of States                                             
--------------------------------------------------------------------------------
    0.00000 |****************************************                      0.059
   12.63605 |********************                                          0.029
   25.27211 |********************                                          0.029
   37.90816 |********************                                          0.029
   50.54421 |********************                                          0.029
   63.18027 |                                                              0.000
   75.81632 |********************                                          0.029
   88.45237 |********************                                          0.029
  101.08843 |                                                              0.000
  113.72448 |****************************************                      0.059
  126.36053 |                                                              0.000
  138.99659 |                                                              0.000
  151.63264 |********************                                          0.029
  164.26869 |********************                                          0.029
  176.90475 |                                                              0.000
  189.54080 |                                                              0.000
  202.17685 |************************************************************  0.088
  214.81291 |********************                                          0.029
  227.44896 |                                                              0.000
  240.08501 |********************                                          0.029
  252.72107 |                                                              0.000
  265.35712 |********************                                          0.029
  277.99317 |****************************************                      0.059
  290.62923 |                                                              0.000
  303.26528 |********************                                          0.029
  315.90133 |****************************************                      0.059
  328.53739 |                                                              0.000
  341.17344 |                                                              0.000
  353.80949 |                                                              0.000
  366.44555 |                                                              0.000
  379.08160 |********************                                          0.029
  391.71765 |                                                              0.000
  404.35371 |                                                              0.000
  416.98976 |                                                              0.000
  429.62581 |                                                              0.000
  442.26187 |********************                                          0.029
  454.89792 |                                                              0.000
  467.53397 |                                                              0.000
  480.17003 |                                                              0.000
  492.80608 |                                                              0.000
  505.44213 |                                                              0.000
  518.07819 |****************************************                      0.059
  530.71424 |                                                              0.000
  543.35029 |                                                              0.000
  555.98635 |                                                              0.000
  568.62240 |                                                              0.000
  581.25846 |                                                              0.000
  593.89451 |********************                                          0.029
  606.53056 |********************                                          0.029
  619.16662 |                                                              0.000
  631.80267 |                                                              0.000
  644.43872 |                                                              0.000
  657.07478 |                                                              0.000
  669.71083 |                                                              0.000
  682.34688 |                                                              0.000
  694.98294 |********************                                          0.029
  707.61899 |                                                              0.000
  720.25504 |                                                              0.000
  732.89110 |****************************************                      0.059
  745.52715 |                                                              0.000
  758.16320 |                                                              0.000
  770.79926 |                                                              0.000
  783.43531 |                                                              0.000
  796.07136 |****************************************                      0.059
--------------------------------------------------------------------------------



  Time to end of optimisation =       0.0447 seconds


  Peak dynamic memory used =       0.65 MB 


  Timing analysis for GULP :

--------------------------------------------------------------------------------
  Task / Subroutine                                          Time (Seconds)
--------------------------------------------------------------------------------
  Calculation of real space energy and derivatives                0.0032
  Calculation of phonons                                          0.0016
  Calculation and manipulation of Hessian matrix                  0.0024
--------------------------------------------------------------------------------
  Total CPU time                                                  0.0447
--------------------------------------------------------------------------------


  Job Finished at 14:38.43 25th May        2022                               

