********************************************************************************
*                       GENERAL UTILITY LATTICE PROGRAM                        *
*                                 Julian Gale                                  *
*                       Curtin Institute for Computation                       *
*                           Department of Chemistry                            *
*                    Curtin University, Western Australia                      *
********************************************************************************
* Version = 5.1.1 * Last modified =  11th January 2019                         *
********************************************************************************
*  single       - perform a single point run                                   *
*  phonon       - calculate phonons for final geometry                         *
*  eigenvectors - output phonon eigenvectors                                   *
********************************************************************************

  Job Started  at 10:31.44 17th May        2022                               

  Number of CPUs =     1

  Host name      = login04                                 


  Total number of configurations input =      1

********************************************************************************
*  Input for Configuration =   1                                               *
********************************************************************************

  Formula = Al3F9                                                       

  Number of irreducible atoms/shells =      21


  Total number atoms/shells =      21

  Dimensionality = 0               :  Cluster


  Charge on cluster =  -0.000000


  Initial cluster dipoles : x =      0.408890 e.Angs
                            y =      0.079512 e.Angs
                            z =     -0.464384 e.Angs

  Temperature of configuration =  0.000     K 

  Symmetry number =      1

  Cartesian coordinates of cluster :

--------------------------------------------------------------------------------
   No.  Atomic       x           y          z         Charge      Occupancy
        Label      (Angs)      (Angs)     (Angs)        (e)         (Frac)  
--------------------------------------------------------------------------------
      1 Al    c     -0.3621      1.0343     -1.7892     3.00000    1.000000    
      2 Al    c     -0.3934      1.0846      1.2039     3.00000    1.000000    
      3 Al    c     -3.0411      0.4539     -1.8643     3.00000    1.000000    
      4 F     c     -3.5405      0.3124     -3.6231     0.59000    1.000000    
      5 F     c     -1.3210     -0.5099     -1.8395     0.59000    1.000000    
      6 F     c     -1.8725      2.0419     -1.8882     0.59000    1.000000    
      7 F     c     -2.0163      0.7199      0.4695     0.59000    1.000000    
      8 F     c      0.5076      1.2513     -0.2661     0.59000    1.000000    
      9 F     c     -0.3088      2.7017      1.9797     0.59000    1.000000    
     10 F     c      0.3450     -0.3239      2.0374     0.59000    1.000000    
     11 F     c     -4.2963      0.2075     -0.5590     0.59000    1.000000    
     12 F     c      0.7042      1.2379     -3.1951     0.59000    1.000000    
     13 F     s     -3.5405      0.3124     -3.6231    -1.59000    1.000000    
     14 F     s     -1.3210     -0.5099     -1.8395    -1.59000    1.000000    
     15 F     s     -1.8725      2.0419     -1.8882    -1.59000    1.000000    
     16 F     s     -2.0163      0.7199      0.4695    -1.59000    1.000000    
     17 F     s      0.5076      1.2513     -0.2661    -1.59000    1.000000    
     18 F     s     -0.3088      2.7017      1.9797    -1.59000    1.000000    
     19 F     s      0.3450     -0.3239      2.0374    -1.59000    1.000000    
     20 F     s     -4.2963      0.2075     -0.5590    -1.59000    1.000000    
     21 F     s      0.7042      1.2379     -3.1951    -1.59000    1.000000    
--------------------------------------------------------------------------------


  Brillouin zone sampling points :

--------------------------------------------------------------------------------
  Point number          x          y          z            Weight
--------------------------------------------------------------------------------
        1           0.000000   0.000000   0.000000     1.00000000
--------------------------------------------------------------------------------


********************************************************************************
*  General input information                                                   *
********************************************************************************

  Species output for all configurations : 

--------------------------------------------------------------------------------
  Species    Type    Atomic    Atomic    Charge       Radii (Angs)     Library
                     Number     Mass       (e)     Cova   Ionic  VDW   Symbol
--------------------------------------------------------------------------------
    Al       Core       13      26.98   3.000000   1.350  0.000  2.050          
    F        Core        9      19.00   0.590000   0.710  0.000  1.300          
    F        Shell       9       0.00  -1.590000   0.710  0.000  1.300          
--------------------------------------------------------------------------------


  Accuracy factor for short range sums = 12.000

  Time limit = Infinity

  Maximum range for interatomic potentials =    100000.000000 Angstroms

  General interatomic potentials :

--------------------------------------------------------------------------------
Atom  Types   Potential      Parameter       Value         Units   Cutoffs(Ang)
  1     2                                                            Min /  Max 
--------------------------------------------------------------------------------
Al   c F    s Buckingham    Buckingham A     3760.0008    eV        0.000 10.000
                            Buckingham rho  0.22200000    Ang       
                            Buckingham C     0.0000000    eV*Ang^6  
--------------------------------------------------------------------------------
F    s F    s Buck 4 range  Buck4 A          1127.7000    eV        0.000 12.000
                            Buck4 rho       0.27530000    Ang       
                            Buck4 C          15.830000    eV*Ang^6  
                            Buck4 minimum    2.7900000    Ang       
--------------------------------------------------------------------------------
F    c F    s Spring (c-s)  Spring k 2       20.770000    eV*Ang^-2 0.000  0.800
                            Spring k 4       0.0000000    eV*Ang^-4 
--------------------------------------------------------------------------------

********************************************************************************
*  Output for configuration   1                                                *
********************************************************************************


  Components of energy : 

--------------------------------------------------------------------------------
  Interatomic potentials     =          12.22453809 eV    
  Monopole - monopole (real) =        -182.21959795 eV    
--------------------------------------------------------------------------------
  Total lattice energy       =        -169.99505986 eV    
--------------------------------------------------------------------------------
  Total lattice energy       =          -16401.9247 kJ/mol
--------------------------------------------------------------------------------

  Born effective charge tensors : 

-------------------------------------------------------------------------------
  Atom             x           y             z
-------------------------------------------------------------------------------
    1 Al    x       1.8986      0.0905     -0.2271
            y       0.0915      1.4791     -0.0378
            z      -0.1727     -0.0260      2.0534
-------------------------------------------------------------------------------
    2 Al    x       1.7599     -0.0248      0.3482
            y      -0.0233      1.9015      0.0707
            z       0.4260      0.0875      1.6642
-------------------------------------------------------------------------------
    3 Al    x       2.6283      0.1868      0.2368
            y       0.1846      1.8260      0.0696
            z       0.1221      0.0448      2.7488
-------------------------------------------------------------------------------
    4 F     x      -0.6712     -0.0450     -0.3075
            y      -0.0439     -0.5012     -0.0794
            z      -0.2503     -0.0670     -1.1675
-------------------------------------------------------------------------------
    5 F     x      -0.8105      0.0343     -0.0644
            y       0.0703     -0.6593     -0.0252
            z      -0.0371     -0.0543     -0.3914
-------------------------------------------------------------------------------
    6 F     x      -0.7444     -0.0762     -0.0691
            y      -0.1114     -0.7229      0.0075
            z      -0.0550      0.0456     -0.3939
-------------------------------------------------------------------------------
    7 F     x      -0.8189     -0.1032     -0.2837
            y      -0.1017     -0.3900     -0.0735
            z      -0.2064     -0.0568     -1.0061
-------------------------------------------------------------------------------
    8 F     x      -0.4018     -0.0295     -0.0645
            y      -0.0297     -0.2778     -0.0180
            z      -0.0760     -0.0205     -0.4852
-------------------------------------------------------------------------------
    9 F     x      -0.5097     -0.0600     -0.0526
            y      -0.0371     -0.8834     -0.2134
            z      -0.0432     -0.2615     -0.6924
-------------------------------------------------------------------------------
   10 F     x      -0.6077      0.1771     -0.1419
            y       0.1543     -0.7687      0.1766
            z      -0.1524      0.2245     -0.7091
-------------------------------------------------------------------------------
   11 F     x      -1.0027     -0.1015      0.3716
            y      -0.1045     -0.5214      0.0740
            z       0.2148      0.0401     -0.8336
-------------------------------------------------------------------------------
   12 F     x      -0.7199     -0.0487      0.2541
            y      -0.0491     -0.4820      0.0489
            z       0.2302      0.0437     -0.7875
-------------------------------------------------------------------------------




  Moment of inertia tensor (10^-46 x kgm^2): 

-------------------------------------------------------------------------------
                x           y           z           Principal axis system
-------------------------------------------------------------------------------
       x        163.61      -17.36      -40.45          102.079547
       y        -17.36      236.42      -10.80          190.048974
       z        -40.45      -10.80      132.48          240.374947
-------------------------------------------------------------------------------
  Centre of mass (Ang) =    -1.296370     0.851591    -0.781506
-------------------------------------------------------------------------------


  Vibrational Frequency Calculation : 

--------------------------------------------------------------------------------

  Frequencies (cm-1) and Eigenvectors : 

  Frequency    -267.3647 -196.9641  -48.1019  -32.7695   -0.0000    0.0000
  IR Intensity    0.0116    0.0483    0.0070    0.0001    0.0000    0.0000
     in X         0.0005    0.0123    0.0013    0.0000    0.0000    0.0000
     in Y         0.0111    0.0008    0.0000    0.0001    0.0000    0.0000
     in Z         0.0000    0.0352    0.0056    0.0000    0.0000    0.0000
  Raman Intsty    0.0000    0.1652    0.1897    0.0000    0.0000    0.0000

     1 x       0.130199  0.005081  0.336162 -0.053737  0.015667  0.316935
     1 y      -0.602444  0.005658  0.070032  0.248652 -0.107722  0.080600
     1 z       0.011490  0.239085 -0.137283 -0.004742  0.308609  0.012044
     2 x      -0.001897 -0.093427 -0.447440  0.111176  0.015667  0.316935
     2 y       0.008778 -0.016374 -0.097233 -0.514427 -0.107722  0.080600
     2 z      -0.000167  0.200155 -0.028009  0.009811  0.308609  0.012044
     3 x      -0.151256  0.004357  0.199044 -0.051802  0.015667  0.316935
     3 y       0.699877 -0.011125  0.043502  0.239694 -0.107722  0.080600
     3 z      -0.013348 -0.632676  0.025478 -0.004572  0.308609  0.012044
     4 x      -0.022137 -0.063692  0.216598 -0.039778  0.013147  0.265966
     4 y       0.102432 -0.020375  0.047009  0.184059 -0.090398  0.067638
     4 z      -0.001954 -0.346568  0.010436 -0.003511  0.258979  0.010107
     5 x       0.084682 -0.069904  0.208207  0.011540  0.013147  0.265966
     5 y      -0.158727  0.034935  0.085357  0.168983 -0.090398  0.067638
     5 z       0.039729  0.012760  0.124754 -0.054757  0.258979  0.010107
     6 x      -0.011290 -0.049346  0.223886 -0.080698  0.013147  0.265966
     6 y      -0.180860 -0.060186  0.012811  0.151021 -0.090398  0.067638
     6 z      -0.033252  0.014574  0.126138  0.048654  0.258979  0.010107
     7 x       0.001216  0.026898 -0.300842  0.024710  0.013147  0.265966
     7 y      -0.005626  0.013147 -0.062348 -0.114338 -0.090398  0.067638
     7 z       0.000107  0.384522  0.139930  0.002181  0.258979  0.010107
     8 x      -0.003705 -0.004116 -0.157646  0.004678  0.013147  0.265966
     8 y       0.017144  0.002263 -0.031957 -0.021648 -0.090398  0.067638
     8 z      -0.000327  0.165311  0.110794  0.000413  0.258979  0.010107
     9 x      -0.001297  0.018006 -0.282720  0.076515  0.013147  0.265966
     9 y       0.004436  0.044375 -0.063428 -0.415906 -0.090398  0.067638
     9 z      -0.000693  0.075909 -0.043689  0.025733  0.258979  0.010107
    10 x      -0.000656  0.034120 -0.283337  0.102201  0.013147  0.265966
    10 y       0.004597 -0.030187 -0.060573 -0.411036 -0.090398  0.067638
    10 z       0.000520  0.077331 -0.043744 -0.009962  0.258979  0.010107
    11 x      -0.032629  0.277161  0.009023 -0.055640  0.013147  0.265966
    11 y       0.150975  0.054935 -0.000626  0.257450 -0.090398  0.067638
    11 z      -0.002879 -0.260298 -0.135030 -0.004911  0.258979  0.010107
    12 x       0.013169 -0.069044  0.262245 -0.050246  0.013147  0.265966
    12 y      -0.060935 -0.012882  0.054330  0.232493 -0.090398  0.067638
    12 z       0.001162  0.106964 -0.122980 -0.004434  0.258979  0.010107


  Frequency       0.0000   68.7998  101.0202  138.6903  147.9522  151.4816
  IR Intensity    0.0000    0.0011    0.0306    0.0012    0.0000    0.0006
     in X         0.0000    0.0000    0.0025    0.0001    0.0000    0.0001
     in Y         0.0000    0.0010    0.0002    0.0012    0.0000    0.0000
     in Z         0.0000    0.0000    0.0279    0.0000    0.0000    0.0005
  Raman Intsty    0.0000    0.0000    0.0077    0.0000    0.0000    0.0057

     1 x      -0.079975  0.009899 -0.022472 -0.003347  0.003938  0.041043
     1 y       0.298310 -0.045804 -0.010167  0.015489 -0.018219  0.010320
     1 z       0.108187  0.000874 -0.278419 -0.000295  0.000347  0.076019
     2 x      -0.079975  0.013627  0.079681  0.000643  0.010946 -0.010070
     2 y       0.298310 -0.063050  0.015538 -0.002974 -0.050646 -0.003413
     2 z       0.108187  0.001202 -0.088183  0.000057  0.000966 -0.064865
     3 x      -0.079975  0.016611 -0.069389 -0.010012  0.000758 -0.062432
     3 y       0.298310 -0.076863 -0.013605  0.046328 -0.003506 -0.013354
     3 z       0.108187  0.001466  0.072963 -0.000884  0.000067  0.007274
     4 x      -0.067114  0.019788  0.028014 -0.003952  0.089863 -0.458366
     4 y       0.250336 -0.091560  0.006976  0.018286 -0.415799 -0.097108
     4 z       0.090788  0.001746  0.048297 -0.000349  0.007930  0.102489
     5 x      -0.067114  0.048692 -0.075521  0.009208  0.185064 -0.029581
     5 y       0.250336 -0.061816  0.021285  0.012162 -0.105284  0.035509
     5 z       0.090788  0.020202  0.289387  0.365919  0.232799  0.050654
     6 x      -0.067114 -0.018671 -0.062275 -0.010527 -0.123258 -0.012683
     6 y       0.250336 -0.077094 -0.040005 -0.006063 -0.180694 -0.042683
     6 z       0.090788 -0.017552  0.290556 -0.366035 -0.227344  0.052145
     7 x      -0.067114  0.020802 -0.137957 -0.121035  0.008021 -0.032319
     7 y       0.250336 -0.096251 -0.019739  0.560042 -0.037112 -0.004622
     7 z       0.090788  0.001836  0.528329 -0.010681  0.000708  0.123913
     8 x      -0.067114 -0.196887 -0.153893  0.009447 -0.003280  0.101303
     8 y       0.250336  0.911013 -0.037000 -0.043710  0.015174  0.022157
     8 z       0.090788 -0.017375 -0.196119  0.000834 -0.000289  0.013841
     9 x      -0.067114 -0.033951  0.269445  0.313789 -0.155688 -0.028343
     9 y       0.250336 -0.104788  0.063338 -0.111641  0.028748  0.170135
     9 z       0.090788  0.153509 -0.146282  0.212969 -0.143854 -0.413615
    10 x      -0.067114  0.075388  0.272704 -0.238032  0.128799  0.047675
    10 y       0.250336 -0.086943  0.048255 -0.238896  0.095674 -0.181605
    10 z       0.090788 -0.149853 -0.145994 -0.206284  0.141482 -0.406908
    11 x      -0.067114  0.017956  0.040076  0.061667  0.004612  0.040404
    11 y       0.250336 -0.083084  0.009305 -0.285336 -0.021341  0.010615
    11 z       0.090788  0.001585  0.033729  0.005442  0.000407  0.098642
    12 x      -0.067114  0.019055 -0.166077 -0.005411 -0.152769  0.409397
    12 y       0.250336 -0.088170 -0.042606  0.025037  0.706874  0.095286
    12 z       0.090788  0.001682 -0.351993 -0.000477 -0.013482  0.356880


  Frequency     152.6397  155.9294  160.9207  163.5087  167.0253  190.3743
  IR Intensity    0.0002    0.0001    0.0145    0.0004    0.0134    0.0178
     in X         0.0000    0.0000    0.0000    0.0000    0.0128    0.0049
     in Y         0.0002    0.0001    0.0000    0.0004    0.0006    0.0003
     in Z         0.0000    0.0000    0.0145    0.0000    0.0000    0.0126
  Raman Intsty    0.0000    0.0000    0.4370    0.0000    0.0102    0.0211

     1 x       0.007435 -0.007119  0.105616 -0.022693 -0.174216 -0.083043
     1 y      -0.034401  0.032938  0.018342  0.105001 -0.037807 -0.020812
     1 z       0.000656 -0.000628 -0.235120 -0.002002 -0.008178 -0.150198
     2 x       0.004557 -0.006594 -0.032449  0.051837  0.030228 -0.023224
     2 y      -0.021085  0.030513 -0.006740 -0.239856  0.006206 -0.004796
     2 z       0.000402 -0.000582  0.014340  0.004574 -0.017143  0.011711
     3 x      -0.012823  0.001960 -0.053990 -0.006169 -0.121609 -0.033628
     3 y       0.059334 -0.009066 -0.011912  0.028543 -0.026036 -0.006519
     3 z      -0.001132  0.000173 -0.012806 -0.000544  0.012894  0.039240
     4 x      -0.107469  0.035242 -0.458977 -0.037946  0.523163  0.286473
     4 y       0.497268 -0.163065 -0.097817  0.175583  0.109820  0.060908
     4 z      -0.009484  0.003110  0.072136 -0.003349 -0.170145 -0.052618
     5 x       0.031833 -0.052275  0.028291  0.003749 -0.149663 -0.165467
     5 y      -0.015343  0.034941  0.056076  0.046475 -0.046141  0.019155
     5 z      -0.105842  0.167907 -0.179173  0.335165  0.065275 -0.309963
     6 x      -0.023493  0.034510  0.050327 -0.019961 -0.155872 -0.140357
     6 y      -0.023249  0.047262 -0.045883  0.028539 -0.017412 -0.097030
     6 z       0.106579 -0.169474 -0.177230 -0.336594  0.064728 -0.307746
     7 x       0.000867 -0.034726 -0.105691 -0.020141 -0.114768  0.001673
     7 y      -0.004010  0.160684 -0.020915  0.093192 -0.024694  0.004900
     7 z       0.000077 -0.003065  0.100966 -0.001777  0.005733  0.237933
     8 x       0.009976  0.034410 -0.206781 -0.023343 -0.108664 -0.206836
     8 y      -0.046157 -0.159218 -0.045987  0.108014 -0.024678 -0.046436
     8 z       0.000880  0.003037 -0.068043 -0.002060 -0.062546 -0.090950
     9 x      -0.294605 -0.488480  0.234985 -0.178164  0.165763 -0.100192
     9 y      -0.050802 -0.121871 -0.162612  0.006870 -0.005318  0.018075
     9 z       0.081634  0.335988  0.329553 -0.467029 -0.018527  0.017017
    10 x       0.289936  0.497854  0.144302  0.155756  0.148925 -0.083925
    10 y       0.072406  0.078493  0.257001  0.096812  0.072593 -0.057190
    10 z      -0.082047 -0.335162  0.321551  0.465050 -0.020015  0.018453
    11 x       0.143476 -0.057483 -0.097228  0.013384 -0.348621  0.388980
    11 y      -0.663875  0.265982 -0.023076 -0.061930 -0.080233  0.094498
    11 z       0.012662 -0.005073 -0.108208  0.001181 -0.256353  0.546965
    12 x      -0.049529  0.044955  0.387919  0.079288  0.356233  0.186355
    12 y       0.229176 -0.208015  0.083583 -0.366871  0.084745  0.041403
    12 z      -0.004371  0.003967 -0.013201  0.006998  0.406658  0.059175


  Frequency     196.0647  214.7285  232.3847  234.6816  261.8909  278.8951
  IR Intensity    0.0046    0.0378    0.0383    0.0204    0.0452    0.0134
     in X         0.0002    0.0003    0.0017    0.0190    0.0020    0.0000
     in Y         0.0044    0.0001    0.0365    0.0009    0.0432    0.0000
     in Z         0.0000    0.0374    0.0000    0.0005    0.0000    0.0134
  Raman Intsty    0.0000    0.0042    0.0000    0.0235    0.0000    0.0384

     1 x      -0.000204  0.086352 -0.025189 -0.006447 -0.062340 -0.067642
     1 y       0.000944  0.022868  0.116551 -0.002762  0.288453 -0.016677
     1 z      -0.000018  0.220535 -0.002223 -0.071766 -0.005501 -0.107949
     2 x      -0.029487 -0.217849 -0.016099  0.399998 -0.010664  0.082203
     2 y       0.136441 -0.043208  0.074493  0.088080  0.049344  0.023486
     2 z      -0.002602  0.203093 -0.001421  0.085642 -0.000941  0.299948
     3 x       0.046133  0.076190 -0.077821 -0.008834 -0.021359  0.088300
     3 y      -0.213461  0.018613  0.360085  0.000556  0.098829  0.019151
     3 z       0.004071  0.112563 -0.006868  0.129224 -0.001885  0.003538
     4 x      -0.104839  0.087453  0.072462  0.026536  0.000925 -0.049428
     4 y       0.485099  0.022053 -0.335287  0.008793 -0.004278 -0.009825
     4 z      -0.009252  0.165309  0.006395  0.160336  0.000082  0.044950
     5 x       0.021073  0.085942 -0.125537  0.020433  0.635261  0.056263
     5 y      -0.123232  0.044306  0.312726  0.028856  0.016051 -0.097860
     5 z       0.356065 -0.367642  0.160324 -0.204683 -0.047778  0.088085
     6 x       0.034481  0.099459 -0.013496  0.032133 -0.585588  0.010151
     6 y      -0.133823 -0.018238  0.330590 -0.025283 -0.245891  0.115496
     6 z      -0.351163 -0.366449 -0.172593 -0.203650  0.052162  0.084016
     7 x       0.108847 -0.199285  0.108828  0.102330  0.008600  0.259089
     7 y      -0.503645 -0.041192 -0.503561  0.030757 -0.039793  0.050922
     7 z       0.009606  0.098440  0.009604  0.453113  0.000759 -0.265911
     8 x       0.009486 -0.127523  0.012183  0.119896  0.016347 -0.663485
     8 y      -0.043895 -0.022250 -0.056371  0.024228 -0.075637 -0.142797
     8 z       0.000837  0.278437  0.001075 -0.088264  0.001442  0.031199
     9 x       0.085724  0.274435  0.044628 -0.314905  0.020047 -0.028535
     9 y       0.065163  0.119407  0.054892  0.169271  0.055358  0.302149
     9 z       0.150527 -0.190174  0.085270  0.058344  0.076254 -0.015213
    10 x      -0.103791  0.300741 -0.062635 -0.217394 -0.040511  0.098859
    10 y       0.018434 -0.002310  0.028428 -0.281921  0.039328 -0.287317
    10 z      -0.152121 -0.187853 -0.086859  0.066949 -0.078060 -0.003971
    11 x      -0.049936 -0.200129  0.078542 -0.246865  0.005168  0.122817
    11 y       0.231062 -0.044008 -0.363418 -0.059922 -0.023912  0.023667
    11 z      -0.004406 -0.039661  0.006932 -0.344469  0.000456 -0.150777
    12 x      -0.020638 -0.255188  0.026960  0.019393  0.052198  0.071696
    12 y       0.095493 -0.055711 -0.124746  0.002890 -0.241524  0.014629
    12 z      -0.001821 -0.029352  0.002379 -0.068199  0.004607 -0.045388


  Frequency     300.8046  328.4308  383.2189  398.1191  417.9032  449.6898
  IR Intensity    0.0319    0.0249    0.3562    0.0435    0.0898    0.4474
     in X         0.0258    0.0176    0.1378    0.0031    0.0000    0.3508
     in Y         0.0013    0.0009    0.0079    0.0001    0.0000    0.0150
     in Z         0.0048    0.0064    0.2105    0.0403    0.0897    0.0816
  Raman Intsty    2.2985    1.3977    0.9083    2.0192    0.4852    0.0173

     1 x      -0.237752  0.137930 -0.055814  0.056859  0.013408  0.136341
     1 y      -0.050938  0.029650 -0.012785  0.013868  0.004027  0.028120
     1 z       0.023332 -0.008373 -0.037857  0.082819  0.059199 -0.070576
     2 x      -0.058086 -0.111370 -0.140721  0.081820 -0.056192  0.000716
     2 y      -0.015883 -0.023179 -0.030293  0.017695 -0.008728 -0.001280
     2 z      -0.174558  0.046663  0.006264  0.000639  0.179108 -0.075240
     3 x       0.132946  0.184878 -0.304310 -0.002264  0.040362  0.688393
     3 y       0.029316  0.041794 -0.075004 -0.006147  0.011769  0.144058
     3 z       0.030589  0.096405 -0.484315 -0.296619  0.159719 -0.247300
     4 x       0.037076  0.044925  0.166332  0.062923 -0.033205 -0.078147
     4 y       0.017319  0.014893  0.046334  0.018307 -0.009625 -0.015654
     4 z       0.487910  0.271805  0.544572  0.246865 -0.128376  0.064753
     5 x       0.064766 -0.487880  0.023926  0.070814 -0.117861 -0.173973
     5 y      -0.210608  0.293691 -0.136469  0.191526 -0.443232 -0.221232
     5 z      -0.044858  0.016757  0.021127  0.020546 -0.030867  0.013501
     6 x      -0.027599 -0.323249 -0.034710  0.143398 -0.290072 -0.249885
     6 y       0.216774 -0.468075  0.134846 -0.144325  0.353603  0.130016
     6 z      -0.053010  0.031286  0.015952  0.026951 -0.046065  0.006802
     7 x      -0.096314  0.152248  0.000061  0.437400  0.257837 -0.097407
     7 y      -0.019410  0.029932 -0.001483  0.096740  0.058332 -0.020220
     7 z       0.073672 -0.155817 -0.078429  0.115875  0.136761  0.043610
     8 x      -0.054859  0.095723  0.202147 -0.309838  0.068751 -0.004599
     8 y      -0.015005  0.022849  0.044926 -0.068029  0.019964 -0.004219
     8 z      -0.165085  0.113308  0.064911 -0.055941  0.267681 -0.169085
     9 x       0.016367  0.022093  0.024953 -0.040291  0.002564 -0.007859
     9 y      -0.177696 -0.004511  0.183790 -0.356955 -0.239056  0.093561
     9 z      -0.030359 -0.008830  0.076899 -0.163914 -0.139419  0.067388
    10 x      -0.058208  0.018329  0.097991 -0.182758 -0.095251  0.030934
    10 y       0.167370  0.012903 -0.154164  0.302258  0.213543 -0.085939
    10 z      -0.036940 -0.009162  0.083344 -0.176487 -0.148051  0.070812
    11 x       0.439592  0.145281 -0.099544 -0.276602 -0.032643 -0.303403
    11 y       0.087938  0.026371 -0.018849 -0.056853 -0.008099 -0.061298
    11 z      -0.370486 -0.263557  0.139701  0.153396 -0.054771  0.224017
    12 x      -0.126714  0.080573  0.215669 -0.067604  0.242766 -0.099298
    12 y      -0.021989  0.014432  0.041779 -0.012957  0.046150 -0.018663
    12 z       0.282911 -0.156298 -0.253303  0.086718 -0.331195  0.146653


  Frequency     466.1429  498.9123  518.0833  591.3394  626.2442  653.7557
  IR Intensity    0.1054    0.1718    0.3020    0.1800    0.0232    0.0675
     in X         0.0047    0.1092    0.0135    0.0440    0.0148    0.0051
     in Y         0.1007    0.0058    0.2884    0.0015    0.0008    0.0004
     in Z         0.0000    0.0568    0.0001    0.1344    0.0076    0.0619
  Raman Intsty    0.0000    0.0045    0.0000    0.5669    0.0690    1.0083

     1 x       0.117545 -0.046136  0.030128  0.359841 -0.613798  0.261447
     1 y      -0.543890 -0.005854 -0.139405  0.066910 -0.140973  0.054457
     1 z       0.010373  0.215873  0.002659 -0.569333 -0.436237 -0.107300
     2 x      -0.027418  0.556127  0.149717  0.211580 -0.088459 -0.116960
     2 y       0.126865  0.123908 -0.692754  0.046084 -0.012634 -0.012116
     2 z      -0.002420  0.194988  0.013212  0.018725  0.339943  0.690090
     3 x       0.068829  0.081161  0.017534 -0.199835  0.292703 -0.141570
     3 y      -0.318480  0.014458 -0.081130 -0.044753  0.062260 -0.030600
     3 z       0.006074 -0.161630  0.001547 -0.082085 -0.052363 -0.000200
     4 x      -0.014267  0.008020 -0.003312  0.022898 -0.033982  0.017120
     4 y       0.066015  0.003157  0.015327  0.005971 -0.007668  0.004076
     4 z      -0.001259  0.074670 -0.000292  0.053578 -0.016991  0.019711
     5 x       0.170301 -0.042573  0.010246 -0.065605  0.114648 -0.018929
     5 y       0.483088  0.037626  0.094552 -0.095632  0.156204 -0.045842
     5 z       0.019932  0.023517  0.000560  0.008248  0.019998 -0.001087
     6 x      -0.354372 -0.023428 -0.048359 -0.099294  0.168745 -0.036155
     6 y       0.368627 -0.050961  0.081801  0.060252 -0.094104  0.033867
     6 z      -0.036176  0.025206 -0.003923  0.005275  0.024772 -0.002608
     7 x      -0.005322 -0.568025 -0.008874 -0.062799  0.009892 -0.062786
     7 y       0.024624 -0.126077  0.041060 -0.014476  0.002249 -0.015207
     7 z      -0.000470 -0.173899 -0.000783 -0.047418  0.005811 -0.085892
     8 x      -0.002896 -0.123696  0.000929  0.013133  0.233230  0.180768
     8 y       0.013402 -0.024833 -0.004297  0.011961  0.054321  0.028374
     8 z      -0.000256  0.099603  0.000082  0.478330  0.205318 -0.560668
     9 x      -0.005854 -0.053198  0.000690 -0.015837  0.010437 -0.001511
     9 y      -0.106364 -0.161628  0.437709 -0.051066 -0.058836 -0.075967
     9 z      -0.055249 -0.089506  0.182296 -0.031812 -0.056159 -0.074076
    10 x       0.048804 -0.114468 -0.179882 -0.035254 -0.014340 -0.032153
    10 y      -0.092372  0.121875  0.391429  0.038778  0.055809  0.065814
    10 z       0.059040 -0.094912 -0.198109 -0.033526 -0.058345 -0.076780
    11 x      -0.013017  0.073640 -0.003046  0.047278 -0.047778  0.031689
    11 y       0.060230  0.016898  0.014095  0.010121 -0.009476  0.006561
    11 z      -0.001149  0.051528 -0.000269 -0.005076  0.044560 -0.015061
    12 x      -0.012795  0.139289 -0.003595 -0.247316  0.047186 -0.081520
    12 y       0.059205  0.026037  0.016632 -0.047226  0.010354 -0.015668
    12 z      -0.001129 -0.213199 -0.000317  0.326341  0.008182  0.102225




--------------------------------------------------------------------------------
  Vibrational properties (for cluster):  Temperature  =       0.000 K
--------------------------------------------------------------------------------
  Zero point energy            =        0.536212 eV
--------------------------------------------------------------------------------

  Phonon density of states : 

--------------------------------------------------------------------------------
 Frequency (cm-1) Density of States                                             
--------------------------------------------------------------------------------
    0.00000 |****************************************                      0.065
   10.21493 |                                                              0.000
   20.42987 |                                                              0.000
   30.64480 |                                                              0.000
   40.85973 |                                                              0.000
   51.07467 |                                                              0.000
   61.28960 |********************                                          0.032
   71.50453 |                                                              0.000
   81.71947 |                                                              0.000
   91.93440 |********************                                          0.032
  102.14933 |                                                              0.000
  112.36427 |                                                              0.000
  122.57920 |                                                              0.000
  132.79413 |********************                                          0.032
  143.00907 |************************************************************  0.097
  153.22400 |****************************************                      0.065
  163.43893 |****************************************                      0.065
  173.65387 |                                                              0.000
  183.86880 |********************                                          0.032
  194.08373 |********************                                          0.032
  204.29867 |                                                              0.000
  214.51360 |********************                                          0.032
  224.72853 |****************************************                      0.065
  234.94347 |                                                              0.000
  245.15840 |                                                              0.000
  255.37334 |********************                                          0.032
  265.58827 |                                                              0.000
  275.80320 |********************                                          0.032
  286.01814 |                                                              0.000
  296.23307 |********************                                          0.032
  306.44800 |                                                              0.000
  316.66294 |                                                              0.000
  326.87787 |********************                                          0.032
  337.09280 |                                                              0.000
  347.30774 |                                                              0.000
  357.52267 |                                                              0.000
  367.73760 |                                                              0.000
  377.95254 |********************                                          0.032
  388.16747 |********************                                          0.032
  398.38240 |                                                              0.000
  408.59734 |********************                                          0.032
  418.81227 |                                                              0.000
  429.02720 |                                                              0.000
  439.24214 |                                                              0.000
  449.45707 |********************                                          0.032
  459.67200 |********************                                          0.032
  469.88694 |                                                              0.000
  480.10187 |                                                              0.000
  490.31680 |********************                                          0.032
  500.53174 |                                                              0.000
  510.74667 |********************                                          0.032
  520.96160 |                                                              0.000
  531.17654 |                                                              0.000
  541.39147 |                                                              0.000
  551.60640 |                                                              0.000
  561.82134 |                                                              0.000
  572.03627 |                                                              0.000
  582.25120 |********************                                          0.032
  592.46614 |                                                              0.000
  602.68107 |                                                              0.000
  612.89600 |                                                              0.000
  623.11094 |********************                                          0.032
  633.32587 |                                                              0.000
  643.54080 |********************                                          0.032
--------------------------------------------------------------------------------



  XYZ File written as 003/4/sp_mod_-20/sp_mod_-20_eig.xyz


  Time to end of properties =       0.0126 seconds


  Peak dynamic memory used =       0.64 MB 


  Timing analysis for GULP :

--------------------------------------------------------------------------------
  Task / Subroutine                                          Time (Seconds)
--------------------------------------------------------------------------------
  Calculation of phonons                                          0.0037
--------------------------------------------------------------------------------
  Total CPU time                                                  0.0127
--------------------------------------------------------------------------------


  Job Finished at 10:31.44 17th May        2022                               

