********************************************************************************
*                       GENERAL UTILITY LATTICE PROGRAM                        *
*                                 Julian Gale                                  *
*                       Curtin Institute for Computation                       *
*                           Department of Chemistry                            *
*                    Curtin University, Western Australia                      *
********************************************************************************
* Version = 5.1.1 * Last modified =  24th November 2018                        *
********************************************************************************
*  optimise     - perform optimisation run                                     *
*  conp         - constant pressure calculation                                *
*  shell        - only shells and radii to be optimised                        *
*  phonon       - calculate phonons for final geometry                         *
*  eigenvectors - output phonon eigenvectors                                   *
********************************************************************************

  Job Started  at 14:38.58 25th May        2022                               

  Number of CPUs =     1

  Host name      = login03                                 


  Total number of configurations input =      1

********************************************************************************
*  Input for Configuration =   1                                               *
********************************************************************************

  Formula = Al3F9                                                       

  Number of irreducible atoms/shells =      21


  Total number atoms/shells =      21

  Dimensionality = 0               :  Cluster


  Charge on cluster =  -0.000000


  Initial cluster dipoles : x =     -0.103342 e.Angs
                            y =      0.468886 e.Angs
                            z =      0.668032 e.Angs

  Temperature of configuration =  0.000     K 

  Symmetry number =      1

  Cartesian coordinates of cluster :

--------------------------------------------------------------------------------
   No.  Atomic       x           y          z         Charge      Occupancy
        Label      (Angs)      (Angs)     (Angs)        (e)         (Frac)  
--------------------------------------------------------------------------------
      1 Al    c      0.3374     -0.5217      1.8177     3.00000    1.000000    
      2 Al    c      2.3118     -1.7713     -0.4940     3.00000    1.000000    
      3 Al    c     -0.8635     -1.8121     -0.9566     3.00000    1.000000    
      4 F     c      3.4944     -0.4769     -1.1225     0.59000    1.000000    
      5 F     c     -1.8498     -0.5455     -1.9010     0.59000    1.000000    
      6 F     c      2.7453     -3.5969     -0.4922     0.59000    1.000000    
      7 F     c     -1.2335     -3.6480     -1.0718     0.59000    1.000000    
      8 F     c      1.9404     -1.4411      1.1693     0.59000    1.000000    
      9 F     c      0.8309     -1.5114     -1.4829     0.59000    1.000000    
     10 F     c      0.1186     -1.1525      3.3749     0.59000    1.000000    
     11 F     c      0.4045      1.0671      1.2170     0.59000    1.000000    
     12 F     c     -0.9904     -1.4788      0.7424     0.59000    1.000000    
     13 F     s      3.4944 *   -0.4769 *   -1.1225 *  -1.59000    1.000000    
     14 F     s     -1.8498 *   -0.5455 *   -1.9010 *  -1.59000    1.000000    
     15 F     s      2.7453 *   -3.5969 *   -0.4922 *  -1.59000    1.000000    
     16 F     s     -1.2335 *   -3.6480 *   -1.0718 *  -1.59000    1.000000    
     17 F     s      1.9404 *   -1.4411 *    1.1693 *  -1.59000    1.000000    
     18 F     s      0.8309 *   -1.5114 *   -1.4829 *  -1.59000    1.000000    
     19 F     s      0.1186 *   -1.1525 *    3.3749 *  -1.59000    1.000000    
     20 F     s      0.4045 *    1.0671 *    1.2170 *  -1.59000    1.000000    
     21 F     s     -0.9904 *   -1.4788 *    0.7424 *  -1.59000    1.000000    
--------------------------------------------------------------------------------


  Brillouin zone sampling points :

--------------------------------------------------------------------------------
  Point number          x          y          z            Weight
--------------------------------------------------------------------------------
        1           0.000000   0.000000   0.000000     1.00000000
--------------------------------------------------------------------------------


********************************************************************************
*  General input information                                                   *
********************************************************************************

  Species output for all configurations : 

--------------------------------------------------------------------------------
  Species    Type    Atomic    Atomic    Charge       Radii (Angs)     Library
                     Number     Mass       (e)     Cova   Ionic  VDW   Symbol
--------------------------------------------------------------------------------
    Al       Core       13      26.98   3.000000   1.350  0.000  2.050          
    F        Core        9      19.00   0.590000   0.710  0.000  1.300          
    F        Shell       9       0.00  -1.590000   0.710  0.000  1.300          
--------------------------------------------------------------------------------


  Accuracy factor for short range sums = 12.000

  Time limit = Infinity

  Maximum range for interatomic potentials =    100000.000000 Angstroms

  General interatomic potentials :

--------------------------------------------------------------------------------
Atom  Types   Potential      Parameter       Value         Units   Cutoffs(Ang)
  1     2                                                            Min /  Max 
--------------------------------------------------------------------------------
Al   c F    s Buckingham    Buckingham A     3760.0008    eV        0.000 10.000
                            Buckingham rho  0.22200000    Ang       
                            Buckingham C     0.0000000    eV*Ang^6  
--------------------------------------------------------------------------------
F    s F    s Buck 4 range  Buck4 A          1127.7000    eV        0.000 12.000
                            Buck4 rho       0.27530000    Ang       
                            Buck4 C          15.830000    eV*Ang^6  
                            Buck4 minimum    2.7900000    Ang       
--------------------------------------------------------------------------------
F    c F    s Spring (c-s)  Spring k 2       20.770000    eV*Ang^-2 0.000  0.800
                            Spring k 4       0.0000000    eV*Ang^-4 
--------------------------------------------------------------------------------

********************************************************************************
*  Output for configuration   1                                                *
********************************************************************************


  Components of energy : 

--------------------------------------------------------------------------------
  Interatomic potentials     =          12.86486674 eV    
  Monopole - monopole (real) =        -183.29017055 eV    
--------------------------------------------------------------------------------
  Total lattice energy       =        -170.42530380 eV    
--------------------------------------------------------------------------------
  Total lattice energy       =          -16443.4366 kJ/mol
--------------------------------------------------------------------------------


  Number of variables =       27

  Maximum number of calculations  =          2000
  Maximum Hessian update interval =            10
  Maximum step size               =   1.000000000
  Maximum parameter tolerance     =   0.000001000
  Maximum function  tolerance     =   0.000010000
  Maximum gradient  tolerance     =   0.000000010
  Maximum gradient  component     =   0.010000000

  Symmetry not applied to optimisation

  Newton-Raphson optimiser to be used

  BFGS hessian update to be used

  Lower half triangular hessian to be used

  Minimiser to switch to RFO
  When gradient norm is less than     0.010000

  Shell only optimisation

  Start of cluster optimisation :

  Cycle:      0 Energy:      -170.425304  Gnorm:      1.328594  CPU:    0.004
  ** Hessian calculated **
  Cycle:      1 Energy:      -185.294551  Gnorm:      0.429374  CPU:    0.006
  ** Hessian calculated **
  Cycle:      2 Energy:      -186.470758  Gnorm:      0.014008  CPU:    0.007
  Cycle:      3 Energy:      -186.472038  Gnorm:      0.002418  CPU:    0.009
  ** Hessian has required structure
  Cycle:      4 Energy:      -186.472050  Gnorm:      0.001631  CPU:    0.010
  ** Hessian has required structure
  Cycle:      5 Energy:      -186.472051  Gnorm:      0.001611  CPU:    0.012
  ** Hessian has required structure
  Cycle:      6 Energy:      -186.472051  Gnorm:      0.001585  CPU:    0.013
  ** Hessian has required structure
  Cycle:      7 Energy:      -186.472051  Gnorm:      0.001570  CPU:    0.014
  ** Hessian has required structure
  Cycle:      8 Energy:      -186.472051  Gnorm:      0.001569  CPU:    0.016
  ** Hessian has required structure
  Cycle:      9 Energy:      -186.472052  Gnorm:      0.001557  CPU:    0.017
  ** Hessian has required structure
  Cycle:     10 Energy:      -186.472052  Gnorm:      0.001514  CPU:    0.018
  ** Hessian has required structure
  Cycle:     11 Energy:      -186.472056  Gnorm:      0.001289  CPU:    0.020
  ** Hessian has required structure
  Cycle:     12 Energy:      -186.472067  Gnorm:      0.000000  CPU:    0.021
  ** Hessian has required structure
  Cycle:     13 Energy:      -186.472067  Gnorm:      0.000000  CPU:    0.023
  ** Hessian has required structure
  Cycle:     14 Energy:      -186.472067  Gnorm:      0.000000  CPU:    0.025
  ** Hessian has required structure
  Cycle:     15 Energy:      -186.472067  Gnorm:      0.000000  CPU:    0.026
  ** Hessian has required structure
  Cycle:     16 Energy:      -186.472067  Gnorm:      0.000000  CPU:    0.028
  ** Hessian has required structure
  Cycle:     17 Energy:      -186.472067  Gnorm:      0.000000  CPU:    0.029
  ** Hessian has required structure
  Cycle:     18 Energy:      -186.472067  Gnorm:      0.000000  CPU:    0.031
  ** Hessian calculated **
  Cycle:     19 Energy:      -186.472067  Gnorm:      0.000000  CPU:    0.032
  ** Hessian has required structure
  Cycle:     20 Energy:      -186.472067  Gnorm:      0.000000  CPU:    0.034
  ** Hessian has required structure
  Cycle:     21 Energy:      -186.472067  Gnorm:      0.000000  CPU:    0.035
  ** Hessian calculated **

  XYZ File written as 002/5/sp_mod_20/sp_mod_20_eig.xyz



  **** Optimisation achieved ****


  Final energy =    -186.47206681 eV
  Final Gnorm  =       0.00000037

  Components of energy : 

--------------------------------------------------------------------------------
  Interatomic potentials     =          38.25581792 eV    
  Monopole - monopole (real) =        -224.72788473 eV    
--------------------------------------------------------------------------------
  Total lattice energy       =        -186.47206681 eV    
--------------------------------------------------------------------------------
  Total lattice energy       =          -17991.7040 kJ/mol
--------------------------------------------------------------------------------

  Final cartesian coordinates of atoms :

--------------------------------------------------------------------------------
   No.  Atomic        x           y          z          Radius
        Label       (Angs)      (Angs)     (Angs)       (Angs) 
--------------------------------------------------------------------------------
     1  Al    c     0.337370   -0.521683    1.817708    0.000000
     2  Al    c     2.311777   -1.771283   -0.494048    0.000000
     3  Al    c    -0.863467   -1.812062   -0.956623    0.000000
     4  F     c     3.494405   -0.476893   -1.122477    0.000000
     5  F     c    -1.849849   -0.545528   -1.901037    0.000000
     6  F     c     2.745316   -3.596900   -0.492213    0.000000
     7  F     c    -1.233462   -3.647998   -1.071849    0.000000
     8  F     c     1.940376   -1.441141    1.169340    0.000000
     9  F     c     0.830920   -1.511374   -1.482910    0.000000
    10  F     c     0.118621   -1.152497    3.374870    0.000000
    11  F     c     0.404480    1.067140    1.216980    0.000000
    12  F     c    -0.990425   -1.478780    0.742376    0.000000
    13  F     s     3.294726   -0.687614   -1.016137    0.000000
    14  F     s    -1.683569   -0.751549   -1.741384    0.000000
    15  F     s     2.666628   -3.289924   -0.488086    0.000000
    16  F     s    -1.166967   -3.339158   -1.046571    0.000000
    17  F     s     1.758545   -1.350636    1.043387    0.000000
    18  F     s     0.800663   -1.584748   -1.268749    0.000000
    19  F     s     0.144235   -1.069006    3.191688    0.000000
    20  F     s     0.396218    0.878449    1.290330    0.000000
    21  F     s    -0.782555   -1.383270    0.673195    0.000000
--------------------------------------------------------------------------------


  Final Cartesian derivatives :

--------------------------------------------------------------------------------
   No.  Atomic          x             y             z           Radius
        Label       (eV/Angs)     (eV/Angs)    (eV/Angs)      (eV/Angs)
--------------------------------------------------------------------------------
      1 Al    c       0.000000      0.000000      0.000000      0.000000
      2 Al    c       0.000000      0.000000      0.000000      0.000000
      3 Al    c       0.000000      0.000000      0.000000      0.000000
      4 F     c       0.000000      0.000000      0.000000      0.000000
      5 F     c       0.000000      0.000000      0.000000      0.000000
      6 F     c       0.000000      0.000000      0.000000      0.000000
      7 F     c       0.000000      0.000000      0.000000      0.000000
      8 F     c       0.000000      0.000000      0.000000      0.000000
      9 F     c       0.000000      0.000000      0.000000      0.000000
     10 F     c       0.000000      0.000000      0.000000      0.000000
     11 F     c       0.000000      0.000000      0.000000      0.000000
     12 F     c       0.000000      0.000000      0.000000      0.000000
     13 F     s      -0.000000     -0.000000      0.000001      0.000000
     14 F     s       0.000000     -0.000000      0.000001      0.000000
     15 F     s      -0.000000      0.000001     -0.000000      0.000000
     16 F     s       0.000000      0.000001      0.000000      0.000000
     17 F     s       0.000000      0.000001     -0.000001      0.000000
     18 F     s       0.000000      0.000000     -0.000000      0.000000
     19 F     s       0.000001      0.000001     -0.000004      0.000000
     20 F     s      -0.000001     -0.000007      0.000005      0.000000
     21 F     s      -0.000000      0.000001     -0.000001      0.000000
--------------------------------------------------------------------------------
  Maximum abs         0.000001      0.000007      0.000005      0.000000
--------------------------------------------------------------------------------


  Born effective charge tensors : 

-------------------------------------------------------------------------------
  Atom             x           y             z
-------------------------------------------------------------------------------
    1 Al    x       1.8063     -0.0971      0.0938
            y      -0.0990      0.8358      0.7663
            z       0.0939      0.7529      1.1075
-------------------------------------------------------------------------------
    2 Al    x       1.1582     -0.1182      0.1088
            y      -0.1270      0.5191      0.1203
            z       0.1079      0.1308      1.1523
-------------------------------------------------------------------------------
    3 Al    x       1.2125      0.0931     -0.0937
            y       0.1045      0.5247      0.1513
            z      -0.0930      0.1589      1.0924
-------------------------------------------------------------------------------
    4 F     x      -0.3555      0.2607     -0.0873
            y       0.2256     -0.2562     -0.1323
            z      -0.0984     -0.1383     -0.4801
-------------------------------------------------------------------------------
    5 F     x      -0.4066     -0.2138      0.1118
            y      -0.1818     -0.2675     -0.1890
            z       0.1232     -0.2045     -0.4177
-------------------------------------------------------------------------------
    6 F     x      -0.5493     -0.1070      0.0278
            y      -0.0770     -0.0332     -0.0292
            z       0.0070     -0.0095     -0.5346
-------------------------------------------------------------------------------
    7 F     x      -0.5430      0.0923     -0.0292
            y       0.0693     -0.0288     -0.0086
            z      -0.0089      0.0194     -0.5453
-------------------------------------------------------------------------------
    8 F     x      -0.4551      0.0658     -0.0067
            y       0.0410     -0.2883     -0.0278
            z       0.0066     -0.0519     -0.2573
-------------------------------------------------------------------------------
    9 F     x      -0.2359      0.0055      0.0132
            y       0.0058     -0.2547     -0.0378
            z       0.0132     -0.0361     -0.3212
-------------------------------------------------------------------------------
   10 F     x      -0.5914      0.0435     -0.0882
            y       0.0334     -0.4788     -0.2405
            z      -0.0873     -0.3097      0.0230
-------------------------------------------------------------------------------
   11 F     x      -0.6033      0.0273     -0.0041
            y       0.0406      0.0186     -0.3333
            z      -0.0053     -0.2419     -0.5459
-------------------------------------------------------------------------------
   12 F     x      -0.4369     -0.0521     -0.0463
            y      -0.0353     -0.2908     -0.0394
            z      -0.0588     -0.0700     -0.2730
-------------------------------------------------------------------------------




  Moment of inertia tensor (10^-46 x kgm^2): 

-------------------------------------------------------------------------------
                x           y           z           Principal axis system
-------------------------------------------------------------------------------
       x        153.61        2.98       -1.91          153.364896
       y          2.98      201.34      -24.66          155.447136
       z         -1.91      -24.66      168.66          214.789316
-------------------------------------------------------------------------------
  Centre of mass (Ang) =     0.603020    -1.403704     0.071966
-------------------------------------------------------------------------------


  Vibrational Frequency Calculation : 

--------------------------------------------------------------------------------

  Frequencies (cm-1) and Eigenvectors : 

  Frequency    -122.0815 -105.8617  -48.2720  -22.3860   -0.0000    0.0000
  IR Intensity    0.0025    0.0001    0.0233    0.0003    0.0000    0.0000
     in X         0.0000    0.0001    0.0228    0.0000    0.0000    0.0000
     in Y         0.0005    0.0000    0.0000    0.0000    0.0000    0.0000
     in Z         0.0019    0.0000    0.0005    0.0003    0.0000    0.0000
  Raman Intsty    0.0067    0.0000    0.0000    0.0426    0.0000    0.0000

     1 x       0.005208  0.038082 -0.066652 -0.011118  0.142790 -0.144519
     1 y      -0.013173  0.000489 -0.000856 -0.301182 -0.292427 -0.036248
     1 z      -0.034586  0.005548 -0.009710  0.102866  0.034446  0.291358
     2 x      -0.008242 -0.008335 -0.079534  0.003627  0.142790 -0.144519
     2 y      -0.011443  0.035857 -0.031831  0.172072 -0.292427 -0.036248
     2 z       0.053501 -0.074255 -0.124610 -0.044208  0.034446  0.291358
     3 x      -0.007077 -0.028266 -0.112550  0.004809  0.142790 -0.144519
     3 y      -0.011428 -0.036327  0.029364  0.172086 -0.292427 -0.036248
     3 z       0.053671  0.068923  0.096627 -0.044036  0.034446  0.291358
     4 x      -0.007181 -0.001469 -0.106064 -0.005458  0.119827 -0.121277
     4 y       0.003608 -0.000608 -0.001701  0.235227 -0.245399 -0.030418
     4 z       0.073109 -0.115339 -0.123029  0.140538  0.028906  0.244502
     5 x      -0.014066 -0.034325 -0.136761 -0.040776  0.119827 -0.121277
     5 y       0.003519  0.000148 -0.001417  0.234772 -0.245399 -0.030418
     5 z       0.072107  0.110124  0.087654  0.135393  0.028906  0.244502
     6 x       0.003598 -0.023151 -0.052337  0.014233  0.119827 -0.121277
     6 y      -0.008503  0.026283 -0.024823  0.144185 -0.245399 -0.030418
     6 z      -0.017872  0.014244 -0.235291 -0.292500  0.028906  0.244502
     7 x       0.001865 -0.017457 -0.117889  0.066177  0.119827 -0.121277
     7 y      -0.008525 -0.026805  0.022637  0.144852 -0.245399 -0.030418
     7 z      -0.018124 -0.020160  0.210492 -0.284933  0.028906  0.244502
     8 x      -0.016016  0.092265 -0.121994 -0.020706  0.119827 -0.121277
     8 y      -0.173353  0.218030 -0.187541 -0.298219 -0.245399 -0.030418
     8 z       0.087328 -0.081986 -0.091033  0.059948  0.028906  0.244502
     9 x      -0.008767 -0.046921 -0.128709 -0.009071  0.119827 -0.121277
     9 y       0.024042 -0.000603 -0.001653  0.345550 -0.245399 -0.030418
     9 z       0.058058 -0.006836 -0.018751  0.031806  0.028906  0.244502
    10 x      -0.038806  0.615536  0.612681 -0.005938  0.119827 -0.121277
    10 y       0.613128  0.007905  0.007868 -0.299538 -0.245399 -0.030418
    10 z       0.212322  0.089672  0.089256  0.067169  0.028906  0.244502
    11 x       0.096629 -0.656738  0.506963 -0.005501  0.119827 -0.121277
    11 y      -0.237751 -0.008434  0.006511 -0.260220 -0.245399 -0.030418
    11 z      -0.642327 -0.095675  0.073855  0.060698  0.028906  0.244502
    12 x      -0.005207  0.070496 -0.147570  0.010237  0.119827 -0.121277
    12 y      -0.173214 -0.215940  0.184079 -0.297821 -0.245399 -0.030418
    12 z       0.088903  0.105697  0.051763  0.064456  0.028906  0.244502


  Frequency       0.0000   28.8224   49.4266   71.2984  101.9235  139.2504
  IR Intensity    0.0000    0.0034    0.0127    0.0005    0.0491    0.0117
     in X         0.0000    0.0033    0.0124    0.0000    0.0006    0.0114
     in Y         0.0000    0.0000    0.0000    0.0002    0.0256    0.0000
     in Z         0.0000    0.0001    0.0003    0.0003    0.0230    0.0002
  Raman Intsty    0.0000    0.0000    0.0000    0.0328    0.0186    0.0000

     1 x      -0.256543  0.274297 -0.356784  0.002943 -0.009598 -0.238970
     1 y      -0.142343  0.003522 -0.004582  0.034935  0.175123 -0.003069
     1 z      -0.144959  0.039960 -0.051977 -0.023282  0.050444 -0.034814
     2 x      -0.256543 -0.091100  0.058269 -0.057717 -0.008733 -0.000075
     2 y      -0.142343 -0.251086 -0.161900 -0.038466  0.054199  0.102960
     2 z      -0.144959 -0.057729  0.210391 -0.014244  0.106520  0.070353
     3 x      -0.256543 -0.110067  0.111773  0.060331 -0.023382  0.022586
     3 y      -0.142343  0.248502  0.164084 -0.036950  0.054011 -0.102671
     3 z      -0.144959  0.028423 -0.185618  0.002954  0.104386 -0.067073
     4 x      -0.215286  0.056245  0.182369  0.218544  0.022213 -0.098717
     4 y      -0.119452 -0.379033 -0.217141 -0.250519 -0.011820 -0.019103
     4 z      -0.121647 -0.155530  0.263044  0.040570  0.024208 -0.347004
     5 x      -0.215286 -0.000009  0.244307 -0.214664 -0.027891 -0.194051
     5 y      -0.119452  0.379755  0.222621 -0.256082 -0.012463  0.015343
     5 z      -0.121647  0.163723 -0.200885 -0.022541  0.016909  0.304354
     6 x      -0.215286 -0.279907 -0.061542 -0.434386 -0.021322  0.033061
     6 y      -0.119452 -0.256390 -0.161347 -0.122676  0.043136  0.097959
     6 z      -0.121647  0.039125  0.198497 -0.081295  0.133982  0.441996
     7 x      -0.215286 -0.263471 -0.006399  0.442469 -0.018875  0.160225
     7 y      -0.119452  0.249412  0.160475 -0.111415  0.043167 -0.095477
     7 z      -0.121647 -0.118286 -0.208395  0.046447  0.134338 -0.413838
     8 x      -0.215286  0.232246 -0.280197  0.029098  0.046854 -0.026696
     8 y      -0.119452  0.072456 -0.060040  0.058334  0.124416  0.246355
     8 z      -0.121647 -0.024241  0.058801 -0.005428  0.079852  0.003099
     9 x      -0.215286 -0.057467  0.166015 -0.015694 -0.017177  0.016053
     9 y      -0.119452 -0.000738  0.002132  0.569857  0.050387  0.000206
     9 z      -0.121647 -0.008372  0.024185  0.057494  0.113467  0.002339
    10 x      -0.215286 -0.088863  0.284100  0.000683  0.043739  0.056843
    10 y      -0.119452 -0.001142  0.003649  0.055532 -0.593997  0.000730
    10 z      -0.121647 -0.012946  0.041388 -0.009585 -0.247870  0.008281
    11 x      -0.215286  0.096658 -0.052925 -0.004873  0.092966  0.329719
    11 y      -0.119452  0.001241 -0.000680  0.047604 -0.103362  0.004235
    11 z      -0.121647  0.014081 -0.007710  0.029251 -0.629032  0.048034
    12 x      -0.215286  0.217427 -0.253198 -0.027798 -0.070799 -0.018498
    12 y      -0.119452 -0.066682  0.053189  0.057604  0.122905 -0.246935
    12 z      -0.121647  0.089750 -0.136507 -0.013716  0.062712 -0.009683


  Frequency     155.9585  164.0000  175.7875  178.4193  201.1543  217.3965
  IR Intensity    0.0004    0.0025    0.0043    0.0008    0.0113    0.0162
     in X         0.0004    0.0000    0.0042    0.0000    0.0001    0.0159
     in Y         0.0000    0.0003    0.0000    0.0005    0.0069    0.0000
     in Z         0.0000    0.0022    0.0001    0.0002    0.0043    0.0003
  Raman Intsty    0.0000    0.0041    0.0000    0.2238    0.0000    0.0000

     1 x       0.206887  0.009021 -0.236180  0.018080 -0.013016  0.214414
     1 y       0.002657  0.198087 -0.003033 -0.023330 -0.143046  0.002754
     1 z       0.030140 -0.079387 -0.034407 -0.122048  0.101957  0.031236
     2 x      -0.142024 -0.012780  0.054002  0.166235  0.008091  0.052657
     2 y       0.056637 -0.068532  0.218422 -0.030268  0.192050  0.236635
     2 z       0.135895 -0.005980 -0.012281  0.051984 -0.113175 -0.129700
     3 x      -0.095886  0.015674  0.053730 -0.173341  0.019703  0.019405
     3 y      -0.059692 -0.068166 -0.217039 -0.034629  0.192199 -0.235709
     3 z      -0.170554 -0.001835  0.027975  0.002514 -0.111484  0.140198
     4 x      -0.204563  0.159033  0.307701  0.297733  0.412873  0.273351
     4 y       0.221827  0.047506  0.013038 -0.173040 -0.130367  0.010464
     4 z       0.319469  0.538094  0.101264  0.025453  0.030765 -0.125161
     5 x      -0.099284 -0.307065  0.324029 -0.288173 -0.401080  0.226462
     5 y      -0.225729  0.041520 -0.004925 -0.180564 -0.140820 -0.004045
     5 z      -0.363734  0.470192 -0.009232 -0.059903 -0.087813  0.197975
     6 x      -0.273409 -0.014880 -0.313268  0.409347  0.053014 -0.271340
     6 y       0.013508 -0.062166  0.107697  0.038973  0.187398  0.138835
     6 z       0.189909 -0.216527 -0.235616 -0.127997  0.307189  0.230237
     7 x      -0.207445  0.077588 -0.364652 -0.356671 -0.143136 -0.190807
     7 y      -0.019684 -0.060978 -0.116403  0.029135  0.184879 -0.144770
     7 z      -0.259961 -0.203056  0.136855 -0.239592  0.278613 -0.297564
     8 x       0.220142 -0.097080  0.023873  0.130347 -0.090126 -0.095941
     8 y       0.012762  0.036143  0.351320  0.063801 -0.065053 -0.382117
     8 z       0.212696 -0.063734 -0.061095  0.034574 -0.100242 -0.019950
     9 x      -0.043455  0.031736 -0.004265 -0.070679  0.053146 -0.061901
     9 y      -0.000558 -0.288265 -0.000055  0.159320 -0.075689 -0.000795
     9 z      -0.006331 -0.192430 -0.000621  0.471117 -0.358135 -0.009018
    10 x       0.228661  0.021131 -0.041151  0.010362 -0.019766  0.002668
    10 y       0.002937 -0.009547 -0.000528  0.065331 -0.022531  0.000034
    10 z       0.033312 -0.144204 -0.005995 -0.076884  0.137666  0.000389
    11 x       0.144406  0.005053  0.206516 -0.008988  0.000882 -0.116645
    11 y       0.001855  0.183827  0.002652  0.041805 -0.162844 -0.001498
    11 z       0.021037 -0.050895  0.030086  0.058008  0.008303 -0.016993
    12 x       0.271917  0.110286  0.014280 -0.136355  0.116582 -0.107223
    12 y      -0.006443  0.038807 -0.350830  0.060376 -0.062399  0.379508
    12 z      -0.141012 -0.033525  0.066653 -0.004280 -0.070128 -0.009647


  Frequency     219.3724  238.1191  241.1840  261.6417  266.1045  316.9749
  IR Intensity    0.0508    0.0958    0.0121    0.0109    0.0941    0.0019
     in X         0.0010    0.0015    0.0118    0.0000    0.0922    0.0000
     in Y         0.0043    0.0304    0.0000    0.0094    0.0000    0.0007
     in Z         0.0455    0.0639    0.0003    0.0014    0.0020    0.0012
  Raman Intsty    0.0021    0.0070    0.0000    0.0654    0.0000    0.0256

     1 x       0.048136 -0.044695 -0.178934  0.031508 -0.053807  0.024044
     1 y       0.081987  0.393926 -0.002298  0.049349 -0.000691  0.013949
     1 z      -0.337650  0.272071 -0.026067 -0.220630 -0.007838 -0.166272
     2 x       0.015546 -0.094563  0.172265  0.131961 -0.323706 -0.174651
     2 y      -0.086678  0.005574  0.051193  0.184895  0.133793  0.032890
     2 z      -0.056678  0.094592  0.291552  0.066924  0.104586  0.102559
     3 x       0.003453  0.063479  0.249506 -0.150175 -0.276950  0.137254
     3 y      -0.086833  0.007604 -0.045777  0.181271 -0.141507  0.036896
     3 z      -0.058441  0.117616 -0.230107  0.025822 -0.192090  0.147998
     4 x      -0.085506 -0.000194 -0.103681  0.168861  0.125042 -0.046260
     4 y       0.092538 -0.217378  0.015023  0.052329 -0.330965 -0.160068
     4 z       0.113917 -0.180627 -0.302960 -0.138468  0.026142  0.008971
     5 x       0.047101  0.057178 -0.185384 -0.123605  0.118940  0.045789
     5 y       0.094241 -0.216642 -0.018736  0.048573  0.334098 -0.158886
     5 z       0.133236 -0.172269  0.260848 -0.181075  0.009402  0.022381
     6 x       0.109954  0.127960 -0.174468 -0.292566  0.207889  0.087718
     6 y      -0.058471  0.059128 -0.037057  0.082455  0.271740  0.109031
     6 z       0.341642 -0.184055 -0.224943 -0.018202 -0.068537 -0.044180
     7 x      -0.201336 -0.071584 -0.232261  0.283431  0.186464 -0.074183
     7 y      -0.062469  0.056566  0.031834  0.089852 -0.266676  0.106951
     7 z       0.296293 -0.213125  0.165689  0.065711  0.125987 -0.067766
     8 x      -0.142937 -0.371625  0.078156  0.006004  0.115233  0.356444
     8 y      -0.296450 -0.205844 -0.134564 -0.260739 -0.055073 -0.094673
     8 z      -0.057273  0.061349  0.323497  0.146578  0.269772  0.343846
     9 x      -0.008656  0.012476  0.291768 -0.039271 -0.225402  0.068359
     9 y       0.382576  0.057183  0.003747 -0.436707 -0.002895  0.047520
     9 z       0.025691 -0.090684  0.042505  0.308065 -0.032837 -0.473427
    10 x       0.048485 -0.011151  0.004208  0.033018  0.066336  0.025034
    10 y       0.039161 -0.084271  0.000054  0.033330  0.000852  0.045239
    10 z      -0.336265  0.083969  0.000613 -0.229586  0.009664 -0.175829
    11 x      -0.007850  0.003503 -0.131490 -0.010706 -0.000599 -0.009766
    11 y       0.210487  0.262795 -0.001689  0.157107 -0.000008  0.109971
    11 z       0.035326 -0.047209 -0.019156  0.059639 -0.000087  0.057342
    12 x       0.160744  0.343736  0.163780 -0.041008  0.185978 -0.437222
    12 y      -0.292550 -0.196658  0.137671 -0.261343  0.058941 -0.104866
    12 z      -0.013033  0.165565 -0.288251  0.139729 -0.225891  0.228224


  Frequency     436.0008  445.4640  497.0821  561.0924  657.4589  682.7418
  IR Intensity    0.0096    0.0907    0.0075    0.0099    0.0354    0.0632
     in X         0.0000    0.0888    0.0001    0.0097    0.0007    0.0011
     in Y         0.0087    0.0000    0.0036    0.0000    0.0005    0.0167
     in Z         0.0009    0.0019    0.0038    0.0002    0.0342    0.0454
  Raman Intsty    3.2324    0.0000    1.3468    0.0000    0.2681    0.0400

     1 x      -0.050480 -0.627338 -0.014604 -0.188377  0.015941  0.058205
     1 y       0.308665 -0.008057  0.095260 -0.002419 -0.106980 -0.379197
     1 z       0.319300 -0.091392  0.091847 -0.027443 -0.099992 -0.366104
     2 x       0.157720  0.030007 -0.243146  0.032460  0.344537 -0.051618
     2 y      -0.066210 -0.052312  0.011597 -0.012733 -0.014184 -0.022525
     2 z      -0.171990 -0.231047 -0.219934 -0.002782  0.380698 -0.141693
     3 x      -0.100387 -0.038475  0.295411  0.029987 -0.438350  0.090444
     3 y      -0.069525  0.052203  0.018513  0.013535 -0.024238 -0.020701
     3 z      -0.209592  0.229814 -0.141476  0.011879  0.266647 -0.120999
     4 x       0.143522  0.098062 -0.170541 -0.214242 -0.109511  0.008117
     4 y       0.202809  0.122121 -0.215170 -0.214823 -0.090800  0.002307
     4 z      -0.046934  0.016920  0.142541  0.118419  0.024121  0.003420
     5 x      -0.129223  0.101853  0.128148 -0.176891  0.100327 -0.008810
     5 y       0.199306 -0.119554 -0.211334  0.209800 -0.088105  0.002090
     5 z      -0.086668  0.012204  0.186055 -0.175400  0.054691  0.000954
     6 x       0.020650  0.037461 -0.043745 -0.089253 -0.060395  0.003975
     6 y      -0.229076 -0.148138  0.283422  0.321582  0.143901  0.011769
     6 z       0.052753  0.079069  0.039228  0.011310 -0.023325  0.006395
     7 x      -0.029073  0.054722  0.023595 -0.074201  0.060900 -0.005929
     7 y      -0.229715  0.149322  0.284286 -0.323681  0.145458  0.011642
     7 z       0.045509 -0.065639  0.049038 -0.035122 -0.005654  0.004953
     8 x       0.309503  0.366000  0.212913  0.201887  0.105434 -0.127692
     8 y      -0.179910 -0.166723 -0.139173 -0.134572 -0.075368  0.094310
     8 z       0.023104  0.054209 -0.236091 -0.326455 -0.300371  0.193438
     9 x       0.009591 -0.207945 -0.048612  0.436689  0.028706 -0.005727
     9 y       0.039825 -0.002671 -0.111184  0.005608  0.069748 -0.015594
     9 z      -0.069347 -0.030294  0.343487  0.063618 -0.203195  0.040679
    10 x      -0.041675 -0.020382 -0.016223 -0.014184 -0.027729 -0.065735
    10 y      -0.097254 -0.000262 -0.034394 -0.000182 -0.072358 -0.195662
    10 z       0.294644 -0.002969  0.114393 -0.002066  0.196717  0.468475
    11 x       0.007146 -0.034064  0.002736 -0.016665  0.008501  0.021385
    11 y       0.275665 -0.000437  0.137768 -0.000214  0.217686  0.495729
    11 z      -0.073357 -0.004963 -0.030924 -0.002428 -0.077541 -0.190498
    12 x      -0.298608  0.361943 -0.133148  0.096923 -0.013438  0.064792
    12 y      -0.187720  0.176072 -0.143617  0.138410 -0.076895  0.096783
    12 z      -0.065487  0.051839 -0.286506  0.369986 -0.317689  0.221481


  Frequency     687.7403  707.6939  728.4732  775.3570  782.2187  887.4190
  IR Intensity    0.0359    0.0314    0.0246    0.0002    0.0081    0.0001
     in X         0.0351    0.0307    0.0004    0.0002    0.0000    0.0000
     in Y         0.0000    0.0000    0.0055    0.0000    0.0055    0.0001
     in Z         0.0007    0.0007    0.0186    0.0000    0.0025    0.0000
  Raman Intsty    0.0000    0.0000    0.0208    0.0000    0.0524    0.0000

     1 x      -0.001305 -0.011421  0.013052 -0.006329 -0.000968 -0.073541
     1 y      -0.000018 -0.000146 -0.130716 -0.000081  0.018376 -0.517891
     1 z      -0.000191 -0.001664 -0.078066 -0.000922  0.005025  0.550461
     2 x      -0.273855 -0.358647 -0.390139 -0.105664  0.224768  0.034794
     2 y      -0.051964  0.173358  0.254387 -0.484503  0.450967 -0.012285
     2 z      -0.355802  0.298357  0.261245  0.154285 -0.154483 -0.031497
     3 x      -0.365188 -0.254159  0.292879 -0.069410 -0.182627 -0.024043
     3 y       0.043757 -0.181229  0.263159  0.482252  0.445739 -0.013041
     3 z       0.262705 -0.387631  0.360747 -0.179789 -0.213834 -0.040069
     4 x       0.077274  0.156212  0.108653  0.212662 -0.232646 -0.006864
     4 y       0.077342  0.144762  0.087364  0.248100 -0.263894 -0.005385
     4 z      -0.025450 -0.084805 -0.062744 -0.116631  0.125590  0.001927
     5 x       0.068722  0.129118 -0.088401  0.176722  0.193715  0.006162
     5 y      -0.075467 -0.141098  0.084833 -0.243097 -0.258421 -0.005217
     5 z       0.046719  0.126373 -0.091451  0.173356  0.187704  0.003825
     6 x       0.009453  0.075585  0.090734 -0.065702  0.049585 -0.003931
     6 y      -0.011194 -0.253408 -0.301253  0.318345 -0.276116  0.008888
     6 z       0.011188 -0.012776 -0.014418 -0.004696  0.009302  0.002085
     7 x       0.011967  0.062402 -0.075245 -0.056284 -0.043219  0.002948
     7 y       0.011468  0.255181 -0.303384 -0.319910 -0.277311  0.008977
     7 z      -0.008068  0.032878 -0.038598 -0.013075 -0.004217  0.003087
     8 x      -0.077437  0.105029  0.074755  0.015554 -0.017628 -0.009312
     8 y       0.063256 -0.083779 -0.054813 -0.008053  0.008075  0.023173
     8 z       0.228437 -0.298968 -0.243805 -0.038667  0.055402  0.006071
     9 x       0.657002  0.208250 -0.008573 -0.068594  0.001340  0.000560
     9 y       0.008438  0.002675 -0.034361 -0.000881 -0.010813  0.003190
     9 z       0.095713  0.030338  0.061874 -0.009993 -0.008244 -0.004128
    10 x       0.009970 -0.001004 -0.004954  0.000222 -0.000409  0.060457
    10 y       0.000128 -0.000013 -0.013915  0.000003 -0.001868  0.178477
    10 z       0.001453 -0.000146  0.035235  0.000032  0.002973 -0.430725
    11 x       0.013548 -0.004979  0.004075 -0.002083 -0.000682  0.018195
    11 y       0.000175 -0.000064  0.130348 -0.000027 -0.018411  0.411837
    11 z       0.001973 -0.000725 -0.039460 -0.000304  0.006303 -0.161200
    12 x      -0.007438  0.013239 -0.000698  0.003670  0.000883  0.006608
    12 y      -0.064346  0.085298 -0.055782  0.008299  0.008313  0.023377
    12 z      -0.240801  0.316198 -0.254796  0.041467  0.058099  0.008390




--------------------------------------------------------------------------------
  Vibrational properties (for cluster):  Temperature  =       0.000 K
--------------------------------------------------------------------------------
  Zero point energy            =        0.674204 eV
--------------------------------------------------------------------------------

  Phonon density of states : 

--------------------------------------------------------------------------------
 Frequency (cm-1) Density of States                                             
--------------------------------------------------------------------------------
    0.00000 |************************************************************  0.065
   13.86592 |                                                              0.000
   27.73185 |******************************                                0.032
   41.59777 |******************************                                0.032
   55.46369 |                                                              0.000
   69.32962 |******************************                                0.032
   83.19554 |                                                              0.000
   97.06146 |******************************                                0.032
  110.92738 |                                                              0.000
  124.79331 |                                                              0.000
  138.65923 |******************************                                0.032
  152.52515 |************************************************************  0.065
  166.39108 |************************************************************  0.065
  180.25700 |                                                              0.000
  194.12292 |******************************                                0.032
  207.98885 |************************************************************  0.065
  221.85477 |                                                              0.000
  235.72069 |************************************************************  0.065
  249.58661 |******************************                                0.032
  263.45254 |******************************                                0.032
  277.31846 |                                                              0.000
  291.18438 |                                                              0.000
  305.05031 |******************************                                0.032
  318.91623 |                                                              0.000
  332.78215 |                                                              0.000
  346.64808 |                                                              0.000
  360.51400 |                                                              0.000
  374.37992 |                                                              0.000
  388.24585 |                                                              0.000
  402.11177 |                                                              0.000
  415.97769 |                                                              0.000
  429.84361 |******************************                                0.032
  443.70954 |******************************                                0.032
  457.57546 |                                                              0.000
  471.44138 |                                                              0.000
  485.30731 |******************************                                0.032
  499.17323 |                                                              0.000
  513.03915 |                                                              0.000
  526.90508 |                                                              0.000
  540.77100 |                                                              0.000
  554.63692 |******************************                                0.032
  568.50284 |                                                              0.000
  582.36877 |                                                              0.000
  596.23469 |                                                              0.000
  610.10061 |                                                              0.000
  623.96654 |                                                              0.000
  637.83246 |                                                              0.000
  651.69838 |******************************                                0.032
  665.56431 |                                                              0.000
  679.43023 |************************************************************  0.065
  693.29615 |                                                              0.000
  707.16207 |******************************                                0.032
  721.02800 |******************************                                0.032
  734.89392 |                                                              0.000
  748.75984 |                                                              0.000
  762.62577 |******************************                                0.032
  776.49169 |******************************                                0.032
  790.35761 |                                                              0.000
  804.22354 |                                                              0.000
  818.08946 |                                                              0.000
  831.95538 |                                                              0.000
  845.82131 |                                                              0.000
  859.68723 |                                                              0.000
  873.55315 |******************************                                0.032
--------------------------------------------------------------------------------



  Time to end of optimisation =       0.0459 seconds


  Peak dynamic memory used =       0.65 MB 


  Timing analysis for GULP :

--------------------------------------------------------------------------------
  Task / Subroutine                                          Time (Seconds)
--------------------------------------------------------------------------------
  Calculation of real space energy and derivatives                0.0033
  Calculation of phonons                                          0.0018
  Calculation and manipulation of Hessian matrix                  0.0022
  Calculation of matrix inversion                                 0.0001
--------------------------------------------------------------------------------
  Total CPU time                                                  0.0459
--------------------------------------------------------------------------------


  Job Finished at 14:38.59 25th May        2022                               

