********************************************************************************
*                       GENERAL UTILITY LATTICE PROGRAM                        *
*                                 Julian Gale                                  *
*                       Curtin Institute for Computation                       *
*                           Department of Chemistry                            *
*                    Curtin University, Western Australia                      *
********************************************************************************
* Version = 5.1.1 * Last modified =  11th January 2019                         *
********************************************************************************
*  single       - perform a single point run                                   *
*  phonon       - calculate phonons for final geometry                         *
*  eigenvectors - output phonon eigenvectors                                   *
********************************************************************************

  Job Started  at 10:31.18 17th May        2022                               

  Number of CPUs =     1

  Host name      = login04                                 


  Total number of configurations input =      1

********************************************************************************
*  Input for Configuration =   1                                               *
********************************************************************************

  Formula = Al3F9                                                       

  Number of irreducible atoms/shells =      21


  Total number atoms/shells =      21

  Dimensionality = 0               :  Cluster


  Charge on cluster =  -0.000000


  Initial cluster dipoles : x =     -0.103342 e.Angs
                            y =      0.468886 e.Angs
                            z =      0.668032 e.Angs

  Temperature of configuration =  0.000     K 

  Symmetry number =      1

  Cartesian coordinates of cluster :

--------------------------------------------------------------------------------
   No.  Atomic       x           y          z         Charge      Occupancy
        Label      (Angs)      (Angs)     (Angs)        (e)         (Frac)  
--------------------------------------------------------------------------------
      1 Al    c      0.3374     -0.5217      1.8177     3.00000    1.000000    
      2 Al    c      2.3118     -1.7713     -0.4940     3.00000    1.000000    
      3 Al    c     -0.8635     -1.8121     -0.9566     3.00000    1.000000    
      4 F     c      3.4944     -0.4769     -1.1225     0.59000    1.000000    
      5 F     c     -1.8498     -0.5455     -1.9010     0.59000    1.000000    
      6 F     c      2.7453     -3.5969     -0.4922     0.59000    1.000000    
      7 F     c     -1.2335     -3.6480     -1.0718     0.59000    1.000000    
      8 F     c      1.9404     -1.4411      1.1693     0.59000    1.000000    
      9 F     c      0.8309     -1.5114     -1.4829     0.59000    1.000000    
     10 F     c      0.1186     -1.1525      3.3749     0.59000    1.000000    
     11 F     c      0.4045      1.0671      1.2170     0.59000    1.000000    
     12 F     c     -0.9904     -1.4788      0.7424     0.59000    1.000000    
     13 F     s      3.4944     -0.4769     -1.1225    -1.59000    1.000000    
     14 F     s     -1.8498     -0.5455     -1.9010    -1.59000    1.000000    
     15 F     s      2.7453     -3.5969     -0.4922    -1.59000    1.000000    
     16 F     s     -1.2335     -3.6480     -1.0718    -1.59000    1.000000    
     17 F     s      1.9404     -1.4411      1.1693    -1.59000    1.000000    
     18 F     s      0.8309     -1.5114     -1.4829    -1.59000    1.000000    
     19 F     s      0.1186     -1.1525      3.3749    -1.59000    1.000000    
     20 F     s      0.4045      1.0671      1.2170    -1.59000    1.000000    
     21 F     s     -0.9904     -1.4788      0.7424    -1.59000    1.000000    
--------------------------------------------------------------------------------


  Brillouin zone sampling points :

--------------------------------------------------------------------------------
  Point number          x          y          z            Weight
--------------------------------------------------------------------------------
        1           0.000000   0.000000   0.000000     1.00000000
--------------------------------------------------------------------------------


********************************************************************************
*  General input information                                                   *
********************************************************************************

  Species output for all configurations : 

--------------------------------------------------------------------------------
  Species    Type    Atomic    Atomic    Charge       Radii (Angs)     Library
                     Number     Mass       (e)     Cova   Ionic  VDW   Symbol
--------------------------------------------------------------------------------
    Al       Core       13      26.98   3.000000   1.350  0.000  2.050          
    F        Core        9      19.00   0.590000   0.710  0.000  1.300          
    F        Shell       9       0.00  -1.590000   0.710  0.000  1.300          
--------------------------------------------------------------------------------


  Accuracy factor for short range sums = 12.000

  Time limit = Infinity

  Maximum range for interatomic potentials =    100000.000000 Angstroms

  General interatomic potentials :

--------------------------------------------------------------------------------
Atom  Types   Potential      Parameter       Value         Units   Cutoffs(Ang)
  1     2                                                            Min /  Max 
--------------------------------------------------------------------------------
Al   c F    s Buckingham    Buckingham A     3760.0008    eV        0.000 10.000
                            Buckingham rho  0.22200000    Ang       
                            Buckingham C     0.0000000    eV*Ang^6  
--------------------------------------------------------------------------------
F    s F    s Buck 4 range  Buck4 A          1127.7000    eV        0.000 12.000
                            Buck4 rho       0.27530000    Ang       
                            Buck4 C          15.830000    eV*Ang^6  
                            Buck4 minimum    2.7900000    Ang       
--------------------------------------------------------------------------------
F    c F    s Spring (c-s)  Spring k 2       20.770000    eV*Ang^-2 0.000  0.800
                            Spring k 4       0.0000000    eV*Ang^-4 
--------------------------------------------------------------------------------

********************************************************************************
*  Output for configuration   1                                                *
********************************************************************************


  Components of energy : 

--------------------------------------------------------------------------------
  Interatomic potentials     =          12.86486674 eV    
  Monopole - monopole (real) =        -183.29017055 eV    
--------------------------------------------------------------------------------
  Total lattice energy       =        -170.42530381 eV    
--------------------------------------------------------------------------------
  Total lattice energy       =          -16443.4366 kJ/mol
--------------------------------------------------------------------------------

  Born effective charge tensors : 

-------------------------------------------------------------------------------
  Atom             x           y             z
-------------------------------------------------------------------------------
    1 Al    x       2.3114     -0.0605      0.0653
            y      -0.0484      1.6928      0.3873
            z       0.0642      0.4708      1.8380
-------------------------------------------------------------------------------
    2 Al    x       2.0218      0.0918     -0.0422
            y       0.1820      2.4808     -0.1363
            z      -0.0305     -0.1768      1.5932
-------------------------------------------------------------------------------
    3 Al    x       1.9717     -0.0498      0.1582
            y      -0.1478      2.4747     -0.1817
            z       0.1472     -0.1950      1.6494
-------------------------------------------------------------------------------
    4 F     x      -0.9795     -0.4143      0.2420
            y      -0.3521     -0.8767      0.1738
            z       0.2096      0.1880     -0.6327
-------------------------------------------------------------------------------
    5 F     x      -0.8436      0.3432     -0.3080
            y       0.2877     -0.8587      0.2597
            z      -0.2761      0.2918     -0.7864
-------------------------------------------------------------------------------
    6 F     x      -0.6776      0.3473      0.0195
            y       0.2650     -1.3384     -0.0082
            z       0.0115     -0.0269     -0.5244
-------------------------------------------------------------------------------
    7 F     x      -0.6426     -0.3079     -0.0556
            y      -0.2343     -1.3533     -0.0820
            z      -0.0469     -0.1232     -0.5446
-------------------------------------------------------------------------------
    8 F     x      -0.7547      0.2203      0.1375
            y       0.2037     -0.4202     -0.1171
            z       0.1387     -0.1219     -0.4778
-------------------------------------------------------------------------------
    9 F     x      -0.7481     -0.0065     -0.0475
            y      -0.0071     -0.2938      0.0084
            z      -0.0475      0.0038     -0.4297
-------------------------------------------------------------------------------
   10 F     x      -0.5114      0.0025      0.0124
            y       0.0057     -0.4854     -0.0412
            z       0.0122     -0.0195     -0.5913
-------------------------------------------------------------------------------
   11 F     x      -0.4994      0.0166      0.0041
            y       0.0139     -0.5916     -0.0870
            z       0.0044     -0.1060     -0.5192
-------------------------------------------------------------------------------
   12 F     x      -0.6480     -0.1827     -0.1857
            y      -0.1682     -0.4302     -0.1756
            z      -0.1868     -0.1850     -0.5746
-------------------------------------------------------------------------------




  Moment of inertia tensor (10^-46 x kgm^2): 

-------------------------------------------------------------------------------
                x           y           z           Principal axis system
-------------------------------------------------------------------------------
       x        153.61        2.98       -1.91          153.364896
       y          2.98      201.34      -24.66          155.447136
       z         -1.91      -24.66      168.66          214.789316
-------------------------------------------------------------------------------
  Centre of mass (Ang) =     0.603020    -1.403704     0.071966
-------------------------------------------------------------------------------


  Vibrational Frequency Calculation : 

--------------------------------------------------------------------------------

  Frequencies (cm-1) and Eigenvectors : 

  Frequency    -135.4977  -81.2270  -76.8367   -0.0000    0.0000    0.0000
  IR Intensity    0.0469    0.0006    0.0029    0.0000    0.0000    0.0000
     in X         0.0459    0.0005    0.0000    0.0000    0.0000    0.0000
     in Y         0.0000    0.0000    0.0026    0.0000    0.0000    0.0000
     in Z         0.0010    0.0000    0.0004    0.0000    0.0000    0.0000
  Raman Intsty    0.0000    0.0000    0.1779    0.0000    0.0000    0.0000

     1 x       0.684082  0.205574  0.018397  0.103350  0.302935 -0.068104
     1 y       0.008786  0.002644  0.479780  0.063702  0.049563  0.317135
     1 z       0.099658  0.029947 -0.168587 -0.303891  0.113415  0.043317
     2 x      -0.187204 -0.114348  0.003668  0.103350  0.302935 -0.068104
     2 y       0.098387 -0.500323 -0.297593  0.063702  0.049563  0.317135
     2 z      -0.294631  0.061013  0.074843 -0.303891  0.113415  0.043317
     3 x      -0.260937 -0.104737 -0.017379  0.103350  0.302935 -0.068104
     3 y      -0.104142  0.497505 -0.297870  0.063702  0.049563  0.317135
     3 z       0.229345 -0.092928  0.071778 -0.303891  0.113415  0.043317
     4 x      -0.096009 -0.087997 -0.000686  0.086730  0.254217 -0.057151
     4 y       0.038607 -0.328092 -0.180162  0.053457  0.041593  0.266134
     4 z      -0.082334  0.043859  0.019732 -0.255020  0.095175  0.036351
     5 x      -0.114504 -0.080051 -0.000439  0.086730  0.254217 -0.057151
     5 y      -0.041310  0.325931 -0.180164  0.053457  0.041593  0.266134
     5 z       0.051666 -0.068340  0.019769 -0.255020  0.095175  0.036351
     6 x      -0.110392 -0.051393 -0.009290  0.086730  0.254217 -0.057151
     6 y       0.124313 -0.274281 -0.203910  0.053457  0.041593  0.266134
     6 z      -0.074727  0.052531  0.053761 -0.255020  0.095175  0.036351
     7 x      -0.123959 -0.041153 -0.001307  0.086730  0.254217 -0.057151
     7 y      -0.127323  0.273089 -0.203812  0.053457  0.041593  0.266134
     7 z       0.040586 -0.066012  0.054925 -0.255020  0.095175  0.036351
     8 x       0.039293  0.086886  0.064709  0.086730  0.254217 -0.057151
     8 y       0.053969 -0.018074  0.160106  0.053457  0.041593  0.266134
     8 z      -0.134143  0.012799 -0.022894 -0.255020  0.095175  0.036351
     9 x      -0.223243 -0.019048 -0.012094  0.086730  0.254217 -0.057151
     9 y      -0.002867 -0.000246 -0.126828  0.053457  0.041593  0.266134
     9 z      -0.032522 -0.002774  0.094199 -0.255020  0.095175  0.036351
    10 x       0.184859  0.096986  0.024774  0.086730  0.254217 -0.057151
    10 y       0.002374  0.001248  0.264070  0.053457  0.041593  0.266134
    10 z       0.026931  0.014128 -0.193338 -0.255020  0.095175  0.036351
    11 x       0.162060  0.025427 -0.011755  0.086730  0.254217 -0.057151
    11 y       0.002081  0.000330  0.450045  0.053457  0.041593  0.266134
    11 z       0.023609  0.003705  0.041010 -0.255020  0.095175  0.036351
    12 x       0.000738  0.086443 -0.059496  0.086730  0.254217 -0.057151
    12 y      -0.053455  0.020303  0.158510  0.053457  0.041593  0.266134
    12 z       0.139975  0.012452 -0.040988 -0.255020  0.095175  0.036351


  Frequency     100.6754  104.4665  114.3281  114.9321  121.2437  127.6991
  IR Intensity    0.0038    0.0201    0.0010    0.0002    0.0083    0.0003
     in X         0.0000    0.0197    0.0000    0.0002    0.0001    0.0003
     in Y         0.0023    0.0000    0.0004    0.0000    0.0057    0.0000
     in Z         0.0015    0.0004    0.0005    0.0000    0.0026    0.0000
  Raman Intsty    0.0230    0.0000    0.0797    0.0000    0.1061    0.0000

     1 x       0.009014  0.162322 -0.011968  0.045205 -0.005100 -0.020362
     1 y       0.041380  0.002085  0.014137  0.000581 -0.013211 -0.000262
     1 z      -0.065522  0.023647  0.080908  0.006585  0.036176 -0.002966
     2 x       0.013991 -0.077312 -0.032832 -0.016358 -0.061833  0.024927
     2 y       0.009823  0.060407  0.054087  0.007894 -0.054838 -0.025292
     2 z       0.070327  0.231098 -0.041177  0.016819 -0.076563 -0.068332
     3 x      -0.033713 -0.006632  0.041843 -0.010677  0.082463  0.003755
     3 y       0.009210 -0.061485  0.055046 -0.008242 -0.052985  0.025660
     3 z       0.063378 -0.243327 -0.030299 -0.020758 -0.055542  0.072511
     4 x       0.026228 -0.119829 -0.153433 -0.039461 -0.036774  0.091371
     4 y      -0.006679  0.096959  0.124639 -0.001994 -0.069627 -0.100915
     4 z       0.089454  0.320311  0.002819  0.082684 -0.047391 -0.223475
     5 x      -0.050479 -0.021000  0.143068 -0.014273  0.050504  0.021258
     5 y      -0.007663 -0.098768  0.128447  0.001302 -0.068506  0.102361
     5 z       0.078280 -0.340827  0.046013 -0.090512 -0.034677  0.239882
     6 x       0.047215 -0.214290  0.062632  0.020164 -0.146329 -0.005555
     6 y      -0.018051  0.134709  0.043380 -0.023030 -0.046270 -0.013841
     6 z       0.082337  0.334276  0.017737 -0.013100 -0.166830 -0.055522
     7 x      -0.068271 -0.106571 -0.066160  0.015004  0.188955 -0.021508
     7 y      -0.019533 -0.138830  0.041727  0.023481 -0.041964  0.013493
     7 z       0.065513 -0.381019 -0.001025  0.018223 -0.117986  0.051579
     8 x      -0.015660  0.124767 -0.125942 -0.192384 -0.214811  0.215892
     8 y      -0.107684  0.216780 -0.021357 -0.379920 -0.310175  0.314143
     8 z       0.077801  0.207960 -0.042228  0.056885 -0.040001 -0.068292
     9 x      -0.010347  0.029020  0.065150 -0.008314  0.001354 -0.004426
     9 y      -0.064163  0.000373 -0.758837 -0.000102  0.383279 -0.000057
     9 z       0.076679  0.004228 -0.380311 -0.001209 -0.043082 -0.000645
    10 x      -0.024229 -0.105587 -0.027603 -0.324850 -0.041115 -0.702060
    10 y       0.498679 -0.001355  0.252474 -0.004173  0.505708 -0.009016
    10 z       0.122355 -0.015382  0.167205 -0.047326  0.237649 -0.102277
    11 x       0.112787  0.135776 -0.027437  0.700116 -0.045315  0.199844
    11 y      -0.239356  0.001743  0.060656  0.008991  0.096311  0.002566
    11 z      -0.753098  0.019779  0.183020  0.101994  0.302556  0.029114
    12 x      -0.004482  0.184316  0.133248 -0.177655  0.225026  0.195270
    12 y      -0.107540 -0.212811 -0.018023  0.375168 -0.304526 -0.308862
    12 z       0.079430 -0.162932 -0.004469 -0.110793  0.024075  0.128190


  Frequency     138.2273  152.8024  155.1396  160.8655  163.8480  169.4089
  IR Intensity    0.0110    0.0026    0.0220    0.0261    0.0011    0.0016
     in X         0.0000    0.0000    0.0215    0.0255    0.0011    0.0000
     in Y         0.0110    0.0013    0.0000    0.0000    0.0000    0.0016
     in Z         0.0000    0.0013    0.0005    0.0005    0.0000    0.0000
  Raman Intsty    0.8814    0.1770    0.0000    0.0000    0.0000    0.0077

     1 x      -0.010324  0.019420  0.287502 -0.212287  0.021416 -0.003249
     1 y      -0.067093  0.192784  0.003692 -0.002726  0.000275 -0.033584
     1 z       0.076778 -0.150299  0.041884 -0.030926  0.003120  0.025259
     2 x      -0.152186 -0.078308 -0.022905 -0.042193 -0.001378  0.038898
     2 y      -0.038693 -0.020005 -0.070393 -0.005062  0.038554  0.017007
     2 z      -0.012651  0.032721 -0.049689  0.057002 -0.037136 -0.012385
     3 x       0.150395  0.066197 -0.037891 -0.024292 -0.010945 -0.034163
     3 y      -0.034807 -0.018149  0.069612  0.004209 -0.038712  0.016068
     3 z       0.031430  0.053773  0.040832 -0.066688  0.035340 -0.023029
     4 x      -0.093118 -0.226457 -0.175658 -0.412623  0.193063  0.401166
     4 y      -0.082366  0.225258  0.084447  0.148393 -0.223747 -0.072762
     4 z      -0.073312  0.312178  0.164519 -0.319806 -0.199614  0.405550
     5 x       0.112203  0.122256 -0.119247 -0.482838  0.122407 -0.498223
     5 y      -0.079729  0.229736 -0.088234 -0.159892  0.227798 -0.084313
     5 z      -0.043401  0.362979 -0.207482  0.189354  0.245573  0.274525
     6 x      -0.571625 -0.160812  0.466860  0.229331  0.047322 -0.113942
     6 y      -0.015154 -0.027404  0.045742 -0.063635  0.093444  0.048666
     6 z       0.091093 -0.078331  0.107459  0.140511  0.489127 -0.347787
     7 x       0.522081  0.177112  0.479111  0.258208  0.187220  0.207156
     7 y      -0.001108 -0.023065 -0.033593  0.069896 -0.090432  0.052790
     7 z       0.250427 -0.029101  0.030352 -0.069485 -0.454959 -0.301008
     8 x       0.032433 -0.196080 -0.070837  0.108570 -0.311116  0.049677
     8 y       0.244912 -0.237622 -0.058729  0.097914  0.062520  0.092899
     8 z      -0.023327  0.025560 -0.035072  0.045266 -0.127064 -0.021160
     9 x       0.034292  0.012426 -0.022283 -0.034746 -0.013407  0.011667
     9 y       0.004803  0.034370 -0.000286 -0.000446 -0.000172 -0.156529
     9 z      -0.235815 -0.088324 -0.003246 -0.005062 -0.001953 -0.066289
    10 x      -0.013494  0.050933 -0.383479  0.249648  0.061752 -0.008600
    10 y      -0.012988 -0.306355 -0.004925  0.003206  0.000793  0.048205
    10 z       0.093772 -0.322616 -0.055866  0.036369  0.008996  0.054783
    11 x       0.022245  0.025360 -0.365265  0.297247  0.034682 -0.006776
    11 y      -0.134939  0.153528 -0.004691  0.003817  0.000445 -0.020047
    11 z      -0.140798 -0.187616 -0.053212  0.043303  0.005053  0.048278
    12 x      -0.030580  0.186552 -0.079353  0.119398 -0.332760 -0.043897
    12 y       0.244103 -0.232707  0.056801 -0.094986 -0.070789  0.091698
    12 z      -0.032507  0.081303  0.013192 -0.012055  0.033263 -0.034792


  Frequency     177.5923  182.3752  202.9331  220.3599  220.9711  252.3247
  IR Intensity    0.0045    0.0114    0.0239    0.0735    0.0031    0.0113
     in X         0.0001    0.0112    0.0005    0.0014    0.0031    0.0001
     in Y         0.0005    0.0000    0.0003    0.0111    0.0000    0.0080
     in Z         0.0040    0.0002    0.0231    0.0609    0.0001    0.0031
  Raman Intsty    0.1808    0.0000    0.4401    0.5625    0.0000    0.1745

     1 x      -0.009572  0.177160 -0.000902  0.045855  0.000689 -0.010783
     1 y      -0.084140  0.002275  0.153048 -0.214589  0.000011  0.135970
     1 z       0.073123  0.025809 -0.007299 -0.295847  0.000103  0.062033
     2 x       0.001722  0.063603  0.073016  0.121013  0.095046 -0.111471
     2 y      -0.087149  0.055922  0.092439 -0.000242  0.003854  0.011424
     2 z       0.024628  0.013999  0.100070 -0.144387 -0.182463  0.009680
     3 x      -0.006484  0.066339 -0.100829 -0.074751  0.039113  0.103755
     3 y      -0.087255 -0.054253  0.090207 -0.002756 -0.002130  0.014189
     3 z       0.023433  0.004931  0.074743 -0.172903  0.202011  0.041035
     4 x      -0.348696 -0.025518  0.150032  0.102318  0.046487 -0.049410
     4 y       0.190145  0.028471  0.047210  0.253749  0.345433 -0.211992
     4 z       0.027121 -0.307463 -0.298469  0.142640  0.091116  0.051936
     5 x       0.321574 -0.111441 -0.059794 -0.145103  0.079221  0.037856
     5 y       0.198754 -0.030229  0.044516  0.250565 -0.343823 -0.210872
     5 z       0.124766  0.287510 -0.329036  0.106594 -0.072805  0.064650
     6 x       0.028136 -0.187641 -0.257194 -0.125110 -0.128913  0.108168
     6 y      -0.147265 -0.000926  0.136150 -0.102366 -0.463775  0.166562
     6 z      -0.364302  0.184008 -0.119723  0.308622  0.201871  0.019296
     7 x       0.080667 -0.127315  0.277151  0.034405 -0.077590 -0.113331
     7 y      -0.146590 -0.003119  0.143012 -0.100309  0.461123  0.163717
     7 z      -0.356649 -0.229891 -0.041878  0.331857 -0.231961 -0.012973
     8 x       0.337392  0.239821  0.137214  0.309595 -0.007790  0.331053
     8 y       0.103889 -0.385279 -0.271927 -0.132040  0.016418 -0.164319
     8 z       0.091427  0.191381  0.222218 -0.063773 -0.228142  0.236124
     9 x      -0.026511  0.063619 -0.039028  0.004585  0.050639  0.082889
     9 y       0.010362  0.000817 -0.315504  0.022120  0.000650  0.169030
     9 z       0.181064  0.009268  0.295716 -0.033418  0.007378 -0.583874
    10 x      -0.021138 -0.175823  0.014601  0.016982 -0.057618  0.003008
    10 y       0.113152 -0.002258 -0.044274  0.230415 -0.000742 -0.029346
    10 z       0.135126 -0.025614 -0.096323 -0.136883 -0.008393 -0.018059
    11 x      -0.002388 -0.316336 -0.000744 -0.032326  0.007002  0.002226
    11 y      -0.109392 -0.004063  0.136894 -0.023301  0.000090  0.098129
    11 z       0.026038 -0.046084 -0.006958  0.223947  0.001018 -0.023932
    12 x      -0.351955  0.274681 -0.188019 -0.275118 -0.072126 -0.380415
    12 y       0.095035  0.391886 -0.276104 -0.139549 -0.017442 -0.173457
    12 z      -0.008998 -0.116427  0.174837 -0.148951  0.216502  0.132477


  Frequency     261.2135  268.0207  302.4950  331.0799  337.4984  374.8713
  IR Intensity    0.2038    0.1713    0.1882    0.6230    0.0258    0.0850
     in X         0.1995    0.0017    0.1843    0.0003    0.0253    0.0002
     in Y         0.0000    0.1054    0.0000    0.5911    0.0000    0.0688
     in Z         0.0042    0.0642    0.0039    0.0316    0.0005    0.0160
  Raman Intsty    0.0000    4.2362    0.0000    0.0009    0.0000    0.0081

     1 x      -0.199502 -0.056803  0.226038  0.021825  0.267907  0.046408
     1 y      -0.002559  0.264128  0.002902 -0.061155  0.003441 -0.228480
     1 z      -0.029060  0.366644  0.032928 -0.144423  0.039029 -0.298419
     2 x      -0.287119  0.023570  0.188802  0.063617 -0.241064 -0.071100
     2 y       0.277302  0.070090  0.366843  0.505148 -0.009682 -0.069328
     2 z      -0.120428 -0.014457  0.087925 -0.013845  0.239965  0.283003
     3 x      -0.302475 -0.020215  0.215202 -0.069708 -0.162759 -0.010864
     3 y      -0.284871  0.069533 -0.361650  0.503440  0.004495 -0.068555
     3 z       0.034535 -0.020839 -0.029069 -0.033268 -0.298794  0.291778
     4 x       0.154016  0.220663 -0.243508 -0.131061  0.245342  0.126641
     4 y      -0.182939  0.235682 -0.300325 -0.286856  0.218266  0.145703
     4 z       0.136151 -0.106989  0.005663  0.059504 -0.196340 -0.137274
     5 x       0.181801 -0.186833 -0.239245  0.115814  0.184547 -0.085843
     5 y       0.187255  0.230446  0.294122 -0.283688 -0.212744  0.142975
     5 z      -0.087232 -0.166351 -0.075991  0.095470  0.258967 -0.168229
     6 x       0.179495  0.018224 -0.030828 -0.030026  0.081495  0.051475
     6 y      -0.201546 -0.430950 -0.281929 -0.311644 -0.199132 -0.100135
     6 z       0.092598  0.010069 -0.092223 -0.024325 -0.110412 -0.089268
     7 x       0.193324 -0.009500 -0.062933  0.043544  0.041578 -0.021336
     7 y       0.206324 -0.431311  0.280724 -0.310702  0.200713 -0.101070
     7 z      -0.038285  0.006033  0.078563 -0.013607  0.128341 -0.099875
     8 x       0.246776  0.016196 -0.148189 -0.011676 -0.215081 -0.164190
     8 y      -0.073443 -0.044925  0.092855  0.016227  0.117460  0.143144
     8 z       0.118570  0.017999  0.059108  0.081066  0.286409  0.295506
     9 x      -0.360911  0.036842  0.199551 -0.005930 -0.013093  0.039911
     9 y      -0.004634  0.095017  0.002562 -0.059885 -0.000168  0.076015
     9 z      -0.052582 -0.261243  0.029072  0.045982 -0.001907 -0.280658
    10 x       0.055830 -0.028994 -0.032026  0.022111 -0.012021  0.042486
    10 y       0.000715 -0.164092 -0.000411  0.056864 -0.000154  0.158990
    10 z       0.008135  0.213484 -0.004667 -0.156788 -0.001751 -0.305651
    11 x       0.021569  0.016620 -0.070816 -0.009179 -0.029388 -0.016192
    11 y       0.000278  0.074392 -0.000909  0.034468 -0.000378 -0.175194
    11 z       0.003141 -0.120645 -0.010316  0.059972 -0.004281  0.126589
    12 x       0.268416 -0.019529 -0.122787 -0.012346 -0.121417  0.069417
    12 y       0.080058 -0.045386 -0.096335  0.016219 -0.121782  0.146145
    12 z      -0.043514  0.012796 -0.098583  0.080968 -0.335431  0.329538


  Frequency     523.4313  555.3688  556.7868  606.8453  630.3532  723.9706
  IR Intensity    0.0081    0.1434    0.2338    0.0023    0.1610    0.0898
     in X         0.0000    0.0020    0.2289    0.0022    0.0034    0.0008
     in Y         0.0077    0.0598    0.0000    0.0000    0.0023    0.0447
     in Z         0.0004    0.0816    0.0049    0.0000    0.1553    0.0444
  Raman Intsty    1.4032    0.0896    0.0000    0.0000    0.0189    0.0001

     1 x      -0.009498 -0.054956  0.058313  0.097682 -0.014223  0.078317
     1 y       0.056775  0.391645  0.000749  0.001255  0.140857  0.469574
     1 z       0.060193  0.342705  0.008495  0.014231  0.085210 -0.578984
     2 x      -0.615057  0.124880  0.371136 -0.104130  0.155440 -0.041569
     2 y       0.058342  0.012892 -0.057637  0.105537 -0.101882  0.032130
     2 z      -0.168899  0.099809  0.080283  0.471207 -0.473685  0.027018
     3 x       0.636011 -0.148445  0.377045  0.037303 -0.011244  0.031313
     3 y       0.074409  0.009382  0.067246 -0.106396 -0.104022  0.033066
     3 z       0.013359  0.059991  0.028713 -0.480946 -0.497964  0.037635
     4 x       0.106472 -0.036212 -0.001176  0.023012 -0.018775  0.005817
     4 y       0.035111 -0.029397  0.024386  0.004369 -0.002236 -0.003903
     4 z       0.002224  0.005981 -0.009256 -0.033548  0.038310 -0.002076
     5 x      -0.103531  0.033728 -0.003154  0.012589  0.007117 -0.004883
     5 y       0.032414 -0.028499 -0.024441 -0.003912 -0.001904 -0.004040
     5 z      -0.028370  0.016170  0.008625  0.038734  0.042082 -0.003635
     6 x       0.079288 -0.024139 -0.021811  0.008712 -0.010812  0.002982
     6 y      -0.053206  0.032198 -0.025840 -0.007122  0.009188 -0.007308
     6 z       0.020816 -0.003134 -0.002502 -0.025900  0.034245 -0.000013
     7 x      -0.080567  0.023212 -0.022261  0.000780  0.000360 -0.002669
     7 y      -0.055259  0.032806  0.025274  0.007244  0.009332 -0.007381
     7 z      -0.002472  0.003764 -0.003919  0.027283  0.035872 -0.000836
     8 x       0.057693  0.029859 -0.059970  0.118306 -0.142474  0.005796
     8 y      -0.022367 -0.046089  0.037138 -0.109012  0.104356 -0.012977
     8 z       0.007145 -0.163491  0.098905 -0.460067  0.419503  0.002007
     9 x      -0.034041  0.006230 -0.808834 -0.145385 -0.009722  0.000210
     9 y      -0.091007  0.017016 -0.010388 -0.001867 -0.009004 -0.005994
     9 z       0.241688 -0.044270 -0.117832 -0.021180  0.067534 -0.000914
    10 x       0.024781  0.062558 -0.006637 -0.017965  0.009572 -0.064392
    10 y       0.067208  0.158982 -0.000085 -0.000231  0.012383 -0.189984
    10 z      -0.176028 -0.443434 -0.000967 -0.002618 -0.066793  0.458751
    11 x      -0.006994 -0.020857 -0.008894 -0.016188 -0.004360 -0.018165
    11 y      -0.114905 -0.584032 -0.000114 -0.000209 -0.150970 -0.392538
    11 z       0.058142  0.194657 -0.001296 -0.002358  0.043235  0.159295
    12 x      -0.056753  0.019188 -0.028311 -0.020629  0.014215 -0.005800
    12 y      -0.023837 -0.046226 -0.038272  0.110267  0.106367 -0.013126
    12 z      -0.009527 -0.165047 -0.111766  0.474300  0.442326  0.000317




--------------------------------------------------------------------------------
  Vibrational properties (for cluster):  Temperature  =       0.000 K
--------------------------------------------------------------------------------
  Zero point energy            =        0.517769 eV
--------------------------------------------------------------------------------

  Phonon density of states : 

--------------------------------------------------------------------------------
 Frequency (cm-1) Density of States                                             
--------------------------------------------------------------------------------
    0.00000 |****************************************                      0.062
   11.31204 |                                                              0.000
   22.62408 |                                                              0.000
   33.93613 |                                                              0.000
   45.24817 |                                                              0.000
   56.56021 |                                                              0.000
   67.87225 |                                                              0.000
   79.18430 |                                                              0.000
   90.49634 |********************                                          0.031
  101.80838 |********************                                          0.031
  113.12042 |************************************************************  0.094
  124.43246 |********************                                          0.031
  135.74451 |********************                                          0.031
  147.05655 |****************************************                      0.062
  158.36859 |************************************************************  0.094
  169.68063 |********************                                          0.031
  180.99267 |********************                                          0.031
  192.30472 |********************                                          0.031
  203.61676 |                                                              0.000
  214.92880 |****************************************                      0.062
  226.24084 |                                                              0.000
  237.55289 |                                                              0.000
  248.86493 |********************                                          0.031
  260.17697 |****************************************                      0.062
  271.48901 |                                                              0.000
  282.80105 |                                                              0.000
  294.11310 |********************                                          0.031
  305.42514 |                                                              0.000
  316.73718 |                                                              0.000
  328.04922 |****************************************                      0.062
  339.36127 |                                                              0.000
  350.67331 |                                                              0.000
  361.98535 |                                                              0.000
  373.29739 |********************                                          0.031
  384.60943 |                                                              0.000
  395.92148 |                                                              0.000
  407.23352 |                                                              0.000
  418.54556 |                                                              0.000
  429.85760 |                                                              0.000
  441.16964 |                                                              0.000
  452.48169 |                                                              0.000
  463.79373 |                                                              0.000
  475.10577 |                                                              0.000
  486.41781 |                                                              0.000
  497.72986 |                                                              0.000
  509.04190 |                                                              0.000
  520.35394 |********************                                          0.031
  531.66598 |                                                              0.000
  542.97802 |                                                              0.000
  554.29007 |****************************************                      0.062
  565.60211 |                                                              0.000
  576.91415 |                                                              0.000
  588.22619 |                                                              0.000
  599.53823 |********************                                          0.031
  610.85028 |                                                              0.000
  622.16232 |********************                                          0.031
  633.47436 |                                                              0.000
  644.78640 |                                                              0.000
  656.09845 |                                                              0.000
  667.41049 |                                                              0.000
  678.72253 |                                                              0.000
  690.03457 |                                                              0.000
  701.34661 |                                                              0.000
  712.65866 |********************                                          0.031
--------------------------------------------------------------------------------



  XYZ File written as 002/5/sp_mod_20/sp_mod_20_eig.xyz


  Time to end of properties =       0.0124 seconds


  Peak dynamic memory used =       0.64 MB 


  Timing analysis for GULP :

--------------------------------------------------------------------------------
  Task / Subroutine                                          Time (Seconds)
--------------------------------------------------------------------------------
  Calculation of phonons                                          0.0037
--------------------------------------------------------------------------------
  Total CPU time                                                  0.0125
--------------------------------------------------------------------------------


  Job Finished at 10:31.18 17th May        2022                               

