********************************************************************************
*                       GENERAL UTILITY LATTICE PROGRAM                        *
*                                 Julian Gale                                  *
*                       Curtin Institute for Computation                       *
*                           Department of Chemistry                            *
*                    Curtin University, Western Australia                      *
********************************************************************************
* Version = 5.1.1 * Last modified =  24th November 2018                        *
********************************************************************************
*  optimise     - perform optimisation run                                     *
*  conp         - constant pressure calculation                                *
*  shell        - only shells and radii to be optimised                        *
*  phonon       - calculate phonons for final geometry                         *
*  eigenvectors - output phonon eigenvectors                                   *
********************************************************************************

  Job Started  at 14:40.02 25th May        2022                               

  Number of CPUs =     1

  Host name      = login03                                 


  Total number of configurations input =      1

********************************************************************************
*  Input for Configuration =   1                                               *
********************************************************************************

  Formula = Al3F9                                                       

  Number of irreducible atoms/shells =      21


  Total number atoms/shells =      21

  Dimensionality = 0               :  Cluster


  Charge on cluster =  -0.000000


  Initial cluster dipoles : x =      0.165038 e.Angs
                            y =     -0.725053 e.Angs
                            z =      0.015964 e.Angs

  Temperature of configuration =  0.000     K 

  Symmetry number =      1

  Cartesian coordinates of cluster :

--------------------------------------------------------------------------------
   No.  Atomic       x           y          z         Charge      Occupancy
        Label      (Angs)      (Angs)     (Angs)        (e)         (Frac)  
--------------------------------------------------------------------------------
      1 Al    c     -1.7246      2.5774     -1.2487     3.00000    1.000000    
      2 Al    c     -0.5172     -0.0146     -2.3253     3.00000    1.000000    
      3 Al    c     -2.1751     -0.3519     -0.5061     3.00000    1.000000    
      4 F     c     -0.9592      3.9651     -0.2938     0.59000    1.000000    
      5 F     c     -3.0735      2.9957     -2.4004     0.59000    1.000000    
      6 F     c     -1.5577     -1.6652     -1.8833     0.59000    1.000000    
      7 F     c     -2.3027      1.4478      0.1734     0.59000    1.000000    
      8 F     c     -3.2933     -1.2712      0.5821     0.59000    1.000000    
      9 F     c      0.5907     -0.4809     -3.6799     0.59000    1.000000    
     10 F     c     -0.1932      1.8770     -2.1414     0.59000    1.000000    
     11 F     c     -2.4074      0.6125     -2.2353     0.59000    1.000000    
     12 F     c     -0.2196     -0.1231     -0.3779     0.59000    1.000000    
     13 F     s     -0.9592 *    3.9651 *   -0.2938 *  -1.59000    1.000000    
     14 F     s     -3.0735 *    2.9957 *   -2.4004 *  -1.59000    1.000000    
     15 F     s     -1.5577 *   -1.6652 *   -1.8833 *  -1.59000    1.000000    
     16 F     s     -2.3027 *    1.4478 *    0.1734 *  -1.59000    1.000000    
     17 F     s     -3.2933 *   -1.2712 *    0.5821 *  -1.59000    1.000000    
     18 F     s      0.5907 *   -0.4809 *   -3.6799 *  -1.59000    1.000000    
     19 F     s     -0.1932 *    1.8770 *   -2.1414 *  -1.59000    1.000000    
     20 F     s     -2.4074 *    0.6125 *   -2.2353 *  -1.59000    1.000000    
     21 F     s     -0.2196 *   -0.1231 *   -0.3779 *  -1.59000    1.000000    
--------------------------------------------------------------------------------


  Brillouin zone sampling points :

--------------------------------------------------------------------------------
  Point number          x          y          z            Weight
--------------------------------------------------------------------------------
        1           0.000000   0.000000   0.000000     1.00000000
--------------------------------------------------------------------------------


********************************************************************************
*  General input information                                                   *
********************************************************************************

  Species output for all configurations : 

--------------------------------------------------------------------------------
  Species    Type    Atomic    Atomic    Charge       Radii (Angs)     Library
                     Number     Mass       (e)     Cova   Ionic  VDW   Symbol
--------------------------------------------------------------------------------
    Al       Core       13      26.98   3.000000   1.350  0.000  2.050          
    F        Core        9      19.00   0.590000   0.710  0.000  1.300          
    F        Shell       9       0.00  -1.590000   0.710  0.000  1.300          
--------------------------------------------------------------------------------


  Accuracy factor for short range sums = 12.000

  Time limit = Infinity

  Maximum range for interatomic potentials =    100000.000000 Angstroms

  General interatomic potentials :

--------------------------------------------------------------------------------
Atom  Types   Potential      Parameter       Value         Units   Cutoffs(Ang)
  1     2                                                            Min /  Max 
--------------------------------------------------------------------------------
Al   c F    s Buckingham    Buckingham A     3760.0008    eV        0.000 10.000
                            Buckingham rho  0.22200000    Ang       
                            Buckingham C     0.0000000    eV*Ang^6  
--------------------------------------------------------------------------------
F    s F    s Buck 4 range  Buck4 A          1127.7000    eV        0.000 12.000
                            Buck4 rho       0.27530000    Ang       
                            Buck4 C          15.830000    eV*Ang^6  
                            Buck4 minimum    2.7900000    Ang       
--------------------------------------------------------------------------------
F    c F    s Spring (c-s)  Spring k 2       20.770000    eV*Ang^-2 0.000  0.800
                            Spring k 4       0.0000000    eV*Ang^-4 
--------------------------------------------------------------------------------

********************************************************************************
*  Output for configuration   1                                                *
********************************************************************************


  Components of energy : 

--------------------------------------------------------------------------------
  Interatomic potentials     =           9.66484637 eV    
  Monopole - monopole (real) =        -176.42151168 eV    
--------------------------------------------------------------------------------
  Total lattice energy       =        -166.75666531 eV    
--------------------------------------------------------------------------------
  Total lattice energy       =          -16089.4691 kJ/mol
--------------------------------------------------------------------------------


  Number of variables =       27

  Maximum number of calculations  =          2000
  Maximum Hessian update interval =            10
  Maximum step size               =   1.000000000
  Maximum parameter tolerance     =   0.000001000
  Maximum function  tolerance     =   0.000010000
  Maximum gradient  tolerance     =   0.000000010
  Maximum gradient  component     =   0.010000000

  Symmetry not applied to optimisation

  Newton-Raphson optimiser to be used

  BFGS hessian update to be used

  Lower half triangular hessian to be used

  Minimiser to switch to RFO
  When gradient norm is less than     0.010000

  Shell only optimisation

  Start of cluster optimisation :

  Cycle:      0 Energy:      -166.756665  Gnorm:      1.531564  CPU:    0.005
  ** Hessian calculated **
  Cycle:      1 Energy:      -184.536387  Gnorm:      0.631501  CPU:    0.007
  ** Hessian calculated **
  Cycle:      2 Energy:      -186.200685  Gnorm:      0.042478  CPU:    0.009
  Cycle:      3 Energy:      -186.211529  Gnorm:      0.007782  CPU:    0.011
  ** Hessian has required structure
  Cycle:      4 Energy:      -186.211889  Gnorm:      0.001516  CPU:    0.014
  ** Hessian has required structure
  Cycle:      5 Energy:      -186.211904  Gnorm:      0.000652  CPU:    0.015
  ** Hessian has required structure
  Cycle:      6 Energy:      -186.211907  Gnorm:      0.000297  CPU:    0.017
  ** Hessian has required structure
  Cycle:      7 Energy:      -186.211908  Gnorm:      0.000152  CPU:    0.019
  ** Hessian has required structure
  Cycle:      8 Energy:      -186.211908  Gnorm:      0.000088  CPU:    0.021
  ** Hessian has required structure
  Cycle:      9 Energy:      -186.211908  Gnorm:      0.000054  CPU:    0.022
  ** Hessian has required structure
  Cycle:     10 Energy:      -186.211908  Gnorm:      0.000032  CPU:    0.024
  ** Hessian has required structure
  Cycle:     11 Energy:      -186.211908  Gnorm:      0.000026  CPU:    0.026
  ** Hessian has required structure
  Cycle:     12 Energy:      -186.211908  Gnorm:      0.000000  CPU:    0.028
  ** Hessian has required structure

  XYZ File written as 005/1/sp_mod_70/sp_mod_70_eig.xyz



  **** Optimisation achieved ****


  Final energy =    -186.21190792 eV
  Final Gnorm  =       0.00000000

  Components of energy : 

--------------------------------------------------------------------------------
  Interatomic potentials     =          37.24554190 eV    
  Monopole - monopole (real) =        -223.45744982 eV    
--------------------------------------------------------------------------------
  Total lattice energy       =        -186.21190792 eV    
--------------------------------------------------------------------------------
  Total lattice energy       =          -17966.6026 kJ/mol
--------------------------------------------------------------------------------

  Final cartesian coordinates of atoms :

--------------------------------------------------------------------------------
   No.  Atomic        x           y          z          Radius
        Label       (Angs)      (Angs)     (Angs)       (Angs) 
--------------------------------------------------------------------------------
     1  Al    c    -1.724605    2.577357   -1.248720    0.000000
     2  Al    c    -0.517223   -0.014561   -2.325328    0.000000
     3  Al    c    -2.175117   -0.351885   -0.506105    0.000000
     4  F     c    -0.959150    3.965074   -0.293832    0.000000
     5  F     c    -3.073506    2.995736   -2.400425    0.000000
     6  F     c    -1.557737   -1.665191   -1.883311    0.000000
     7  F     c    -2.302686    1.447803    0.173418    0.000000
     8  F     c    -3.293339   -1.271165    0.582126    0.000000
     9  F     c     0.590702   -0.480899   -3.679866    0.000000
    10  F     c    -0.193181    1.877014   -2.141360    0.000000
    11  F     c    -2.407382    0.612500   -2.235277    0.000000
    12  F     c    -0.219595   -0.123084   -0.377895    0.000000
    13  F     s    -1.072542    3.739281   -0.439035    0.000000
    14  F     s    -2.872028    2.938238   -2.227475    0.000000
    15  F     s    -1.515134   -1.402836   -1.795840    0.000000
    16  F     s    -2.229072    1.374210   -0.067244    0.000000
    17  F     s    -3.114834   -1.124130    0.410842    0.000000
    18  F     s     0.416167   -0.405695   -3.463756    0.000000
    19  F     s    -0.407007    1.744937   -2.066612    0.000000
    20  F     s    -2.195949    0.511275   -2.061363    0.000000
    21  F     s    -0.437046   -0.123052   -0.576056    0.000000
--------------------------------------------------------------------------------


  Final Cartesian derivatives :

--------------------------------------------------------------------------------
   No.  Atomic          x             y             z           Radius
        Label       (eV/Angs)     (eV/Angs)    (eV/Angs)      (eV/Angs)
--------------------------------------------------------------------------------
      1 Al    c       0.000000      0.000000      0.000000      0.000000
      2 Al    c       0.000000      0.000000      0.000000      0.000000
      3 Al    c       0.000000      0.000000      0.000000      0.000000
      4 F     c       0.000000      0.000000      0.000000      0.000000
      5 F     c       0.000000      0.000000      0.000000      0.000000
      6 F     c       0.000000      0.000000      0.000000      0.000000
      7 F     c       0.000000      0.000000      0.000000      0.000000
      8 F     c       0.000000      0.000000      0.000000      0.000000
      9 F     c       0.000000      0.000000      0.000000      0.000000
     10 F     c       0.000000      0.000000      0.000000      0.000000
     11 F     c       0.000000      0.000000      0.000000      0.000000
     12 F     c       0.000000      0.000000      0.000000      0.000000
     13 F     s       0.000000      0.000000     -0.000000      0.000000
     14 F     s       0.000000     -0.000000      0.000000      0.000000
     15 F     s       0.000000     -0.000000     -0.000000      0.000000
     16 F     s       0.000000     -0.000000      0.000000      0.000000
     17 F     s      -0.000000     -0.000000     -0.000000      0.000000
     18 F     s       0.000000      0.000000      0.000000      0.000000
     19 F     s      -0.000000      0.000000     -0.000000      0.000000
     20 F     s      -0.000000      0.000000      0.000000      0.000000
     21 F     s      -0.000000     -0.000000     -0.000000      0.000000
--------------------------------------------------------------------------------
  Maximum abs         0.000000      0.000000      0.000000      0.000000
--------------------------------------------------------------------------------


  Born effective charge tensors : 

-------------------------------------------------------------------------------
  Atom             x           y             z
-------------------------------------------------------------------------------
    1 Al    x       0.8402     -0.0751     -0.4272
            y      -0.0377      1.5030      0.0044
            z      -0.4202     -0.0297      0.9052
-------------------------------------------------------------------------------
    2 Al    x       1.1088      0.0955      0.2012
            y       0.0756      1.3746     -0.1338
            z       0.1753     -0.1354      0.9021
-------------------------------------------------------------------------------
    3 Al    x       1.0046     -0.2233      0.1315
            y      -0.2284      1.2522      0.1623
            z       0.1528      0.1866      1.1287
-------------------------------------------------------------------------------
    4 F     x      -0.4186      0.1562      0.1245
            y       0.1785     -0.2935      0.2053
            z       0.1287      0.1850     -0.3719
-------------------------------------------------------------------------------
    5 F     x      -0.2245     -0.0484      0.2659
            y      -0.0949     -0.5998     -0.1001
            z       0.2573     -0.0577     -0.3024
-------------------------------------------------------------------------------
    6 F     x      -0.3784     -0.0263      0.0721
            y       0.0194     -0.4675      0.0169
            z       0.0806     -0.0248     -0.3940
-------------------------------------------------------------------------------
    7 F     x      -0.3027      0.0200      0.0374
            y       0.0156     -0.4724     -0.0272
            z       0.0392     -0.0050     -0.3470
-------------------------------------------------------------------------------
    8 F     x      -0.3078      0.1957     -0.2263
            y       0.2016     -0.3982     -0.1884
            z      -0.2341     -0.1806     -0.3200
-------------------------------------------------------------------------------
    9 F     x      -0.3141     -0.0860     -0.2867
            y      -0.0948     -0.5155      0.1231
            z      -0.2794      0.1179     -0.1963
-------------------------------------------------------------------------------
   10 F     x      -0.3374      0.0137      0.0427
            y      -0.0079     -0.4770     -0.0081
            z       0.0361     -0.0065     -0.3077
-------------------------------------------------------------------------------
   11 F     x      -0.3311     -0.0430      0.0342
            y      -0.0330     -0.5123     -0.0551
            z       0.0361     -0.0642     -0.3565
-------------------------------------------------------------------------------
   12 F     x      -0.3390      0.0210      0.0305
            y       0.0060     -0.3938      0.0008
            z       0.0278      0.0144     -0.3402
-------------------------------------------------------------------------------




  Moment of inertia tensor (10^-46 x kgm^2): 

-------------------------------------------------------------------------------
                x           y           z           Principal axis system
-------------------------------------------------------------------------------
       x        174.60        4.06       26.79          112.873211
       y          4.06      113.51       -2.33          146.033203
       z         26.79       -2.33      170.01          199.216299
-------------------------------------------------------------------------------
  Centre of mass (Ang) =    -1.484761     0.791650    -1.361255
-------------------------------------------------------------------------------


  Vibrational Frequency Calculation : 

--------------------------------------------------------------------------------

  Frequencies (cm-1) and Eigenvectors : 

  Frequency      -0.0000    0.0000    0.0000   26.0053   32.8564   35.0925
  IR Intensity    0.0000    0.0000    0.0000    0.0003    0.0000    0.0001
     in X         0.0000    0.0000    0.0000    0.0001    0.0000    0.0000
     in Y         0.0000    0.0000    0.0000    0.0000    0.0000    0.0001
     in Z         0.0000    0.0000    0.0000    0.0002    0.0000    0.0000
  Raman Intsty    0.0000    0.0000    0.0000    0.0000    0.0000    0.0042

     1 x      -0.006163  0.327186  0.000195  0.170958  0.059820 -0.243658
     1 y       0.327151  0.006160  0.004835  0.034784  0.012171 -0.017483
     1 z      -0.004830 -0.000286  0.327209 -0.187593 -0.065644 -0.225291
     2 x      -0.006163  0.327186  0.000195 -0.015858 -0.194591  0.125288
     2 y       0.327151  0.006160  0.004835 -0.186907 -0.075222  0.014845
     2 z      -0.004830 -0.000286  0.327209  0.143352 -0.129808  0.115449
     3 x      -0.006163  0.327186  0.000195 -0.172243  0.134510  0.123839
     3 y       0.327151  0.006160  0.004835  0.148635  0.062997  0.014550
     3 z      -0.004830 -0.000286  0.327209  0.063052  0.195737  0.117036
     4 x      -0.005172  0.274569  0.000164  0.186364  0.181924 -0.349470
     4 y       0.274539  0.005169  0.004057  0.037919  0.037016  0.137236
     4 z      -0.004054 -0.000240  0.274587 -0.204499 -0.199630 -0.293030
     5 x      -0.005172  0.274569  0.000164  0.268613 -0.080286 -0.226841
     5 y       0.274539  0.005169  0.004057  0.054653 -0.016336 -0.259321
     5 z      -0.004054 -0.000240  0.274587 -0.294752  0.088097 -0.254810
     6 x      -0.005172  0.274569  0.000164 -0.176628 -0.118976  0.256532
     6 y       0.274539  0.005169  0.004057 -0.035938 -0.024208 -0.046981
     6 z      -0.004054 -0.000240  0.274587  0.193815  0.130555  0.225070
     7 x      -0.005172  0.274569  0.000164 -0.032486  0.223082 -0.110338
     7 y       0.274539  0.005169  0.004057  0.190202  0.090007  0.062832
     7 z      -0.004054 -0.000240  0.274587 -0.101862  0.082349 -0.085212
     8 x      -0.005172  0.274569  0.000164 -0.292648  0.298007  0.208171
     8 y       0.274539  0.005169  0.004057  0.314535  0.118549 -0.010133
     8 z      -0.004054 -0.000240  0.274587  0.061468  0.409776  0.186358
     9 x      -0.005172  0.274569  0.000164  0.028919 -0.411587  0.206735
     9 y       0.274539  0.005169  0.004057 -0.368195 -0.141659 -0.010425
     9 z      -0.004054 -0.000240  0.274587  0.227925 -0.285140  0.187941
    10 x      -0.005172  0.274569  0.000164  0.137574 -0.088561 -0.106730
    10 y       0.274539  0.005169  0.004057 -0.168820 -0.062636  0.063567
    10 z      -0.004054 -0.000240  0.274587 -0.013453 -0.229962 -0.089168
    11 x      -0.005172  0.274569  0.000164  0.031887 -0.134925  0.038226
    11 y       0.274539  0.005169  0.004057  0.006488 -0.027453 -0.172696
    11 z      -0.004054 -0.000240  0.274587 -0.034990  0.148054  0.002813
    12 x      -0.005172  0.274569  0.000164 -0.131167  0.131632  0.077198
    12 y       0.274539  0.005169  0.004057 -0.026688  0.026783  0.221727
    12 z      -0.004054 -0.000240  0.274587  0.143931 -0.144440  0.111466


  Frequency      95.4757  102.5781  113.7255  146.6298  150.4021  155.7381
  IR Intensity    0.0008    0.0258    0.0015    0.0055    0.0114    0.0051
     in X         0.0004    0.0143    0.0001    0.0030    0.0051    0.0023
     in Y         0.0000    0.0003    0.0014    0.0001    0.0002    0.0001
     in Z         0.0005    0.0112    0.0000    0.0023    0.0061    0.0027
  Raman Intsty    0.0000    0.1071    0.2445    1.8187    0.0000    0.0000

     1 x      -0.000216  0.048885 -0.066758 -0.138369 -0.038953  0.039461
     1 y      -0.000044  0.019563 -0.041584 -0.208744 -0.007925  0.008029
     1 z       0.000237  0.048178 -0.068549 -0.164804  0.042744 -0.043301
     2 x       0.011425  0.080416  0.031647  0.156034  0.066577  0.213667
     2 y      -0.028898 -0.031859  0.003704  0.112735  0.156599  0.019452
     2 z      -0.028841  0.081670  0.031747  0.103075 -0.087316  0.132045
     3 x       0.021702  0.094384  0.033816  0.097369  0.106438 -0.148887
     3 y       0.035638 -0.029017  0.004145  0.100798 -0.121397 -0.006272
     3 z      -0.007508  0.066343  0.029366  0.167450 -0.102535 -0.203128
     4 x       0.241121 -0.102917 -0.319436 -0.018674 -0.366488  0.139905
     4 y       0.049061  0.166811  0.240959 -0.288071 -0.074567  0.028466
     4 z      -0.264586 -0.062858 -0.246429 -0.070433  0.402151 -0.153519
     5 x      -0.432628  0.018722 -0.074150 -0.095656 -0.038434 -0.317831
     5 y      -0.088026 -0.243773 -0.164415  0.139007 -0.007820 -0.064668
     5 z       0.474726 -0.028143 -0.098061 -0.061398  0.042174  0.348759
     6 x       0.010212  0.267628 -0.326918 -0.037376 -0.053418 -0.017414
     6 y       0.002077 -0.118723  0.133094  0.245912 -0.010869 -0.003543
     6 z      -0.011204  0.221881 -0.273249  0.011536  0.058616  0.019109
     7 x       0.246870  0.142227  0.314462 -0.081092  0.133730 -0.284084
     7 y       0.011061 -0.001815 -0.006826  0.039764 -0.154622 -0.026861
     7 z       0.102813  0.047801  0.151726  0.150423 -0.065481 -0.220467
     8 x      -0.278430 -0.438824  0.021668 -0.031679 -0.127560  0.162656
     8 y       0.120315  0.178556  0.043402 -0.311692  0.413288  0.080730
     8 z      -0.236755 -0.304888  0.049736 -0.307509  0.132806  0.199859
     9 x       0.283631 -0.378316  0.043113 -0.247521 -0.040955 -0.198484
     9 y      -0.119255  0.190869  0.047766 -0.355609 -0.447574 -0.088019
     9 z       0.231041 -0.371289  0.026204 -0.070663  0.052107 -0.160545
    10 x      -0.125468  0.062597  0.183904  0.130944  0.021356  0.241662
    10 y       0.013640 -0.018017 -0.033390  0.082906  0.186177  0.018229
    10 z      -0.236027  0.135183  0.294988 -0.082246 -0.104697  0.267017
    11 x      -0.027872  0.068560  0.087706  0.147870  0.139550  0.267612
    11 y      -0.005672 -0.151939  0.219504  0.282847  0.028393  0.054449
    11 z       0.030585  0.034308  0.120629  0.187202 -0.153130 -0.293653
    12 x       0.043345  0.093769  0.071196  0.096104  0.172466 -0.118239
    12 y       0.008819  0.047261 -0.439893  0.159230  0.035091 -0.024058
    12 z      -0.047562  0.094217 -0.016684  0.117106 -0.189249  0.129744


  Frequency     179.7296  215.6347  217.1312  231.7566  253.2908  259.7597
  IR Intensity    0.0206    0.0084    0.0099    0.0015    0.0006    0.0248
     in X         0.0000    0.0011    0.0044    0.0007    0.0003    0.0097
     in Y         0.0200    0.0071    0.0002    0.0000    0.0000    0.0099
     in Z         0.0006    0.0002    0.0053    0.0008    0.0003    0.0051
  Raman Intsty    0.7384    0.2235    0.0000    0.0000    0.0000    0.0003

     1 x       0.149199  0.149359 -0.225101  0.051578 -0.109640  0.178461
     1 y       0.250864 -0.068378 -0.045801  0.010494 -0.022308 -0.054614
     1 z       0.182484  0.123434  0.247006 -0.056597  0.120309  0.152509
     2 x      -0.103969 -0.079001  0.019095  0.163905  0.237146  0.091638
     2 y       0.000140  0.101183  0.363473  0.104481 -0.198367 -0.064827
     2 z      -0.038171 -0.084084  0.010295  0.318660  0.024447  0.025158
     3 x      -0.048698 -0.109153  0.053719 -0.310426 -0.085767  0.046354
     3 y       0.011386  0.095051 -0.348657 -0.134292  0.229167 -0.074041
     3 z      -0.098821 -0.050999 -0.090195 -0.157881 -0.190556  0.074848
     4 x      -0.144887  0.136764  0.335398 -0.019668 -0.075863 -0.144660
     4 y       0.519892 -0.067437  0.068242 -0.004002 -0.015435  0.282930
     4 z      -0.035638  0.112134 -0.368034  0.021582  0.083245 -0.079370
     5 x       0.115109  0.072671  0.164221  0.058845  0.015632  0.180976
     5 y      -0.011312 -0.793350  0.033411  0.011973  0.003181 -0.043769
     5 z       0.102804 -0.080877 -0.180201 -0.064571 -0.017153  0.156811
     6 x       0.064119 -0.123141  0.159538 -0.044539  0.360108 -0.066547
     6 y      -0.074665  0.120593  0.032461 -0.009062  0.073269 -0.020140
     6 z       0.044588 -0.089859 -0.175063  0.048873 -0.395150 -0.064380
     7 x       0.087801 -0.068772 -0.086248  0.468171  0.027863 -0.507442
     7 y       0.035375  0.038220 -0.246636 -0.123602  0.153312 -0.006987
     7 z      -0.025529  0.140568  0.058047  0.004646  0.286881 -0.047186
     8 x       0.170562  0.033407 -0.108071  0.011211  0.136691 -0.081443
     8 y      -0.400527  0.003202  0.115497 -0.183037  0.252648  0.022051
     8 z      -0.223961  0.019118  0.133395  0.130508  0.028152  0.031587
     9 x      -0.127657  0.021757 -0.097628 -0.161947  0.003327  0.017971
     9 y      -0.461205  0.000832 -0.157349  0.152367 -0.224159  0.042279
     9 z       0.103277  0.031901  0.092321  0.034896 -0.181795 -0.077501
    10 x      -0.021762  0.122940 -0.091998 -0.078122 -0.255645 -0.100325
    10 y       0.013082  0.077225  0.210369  0.202963 -0.199657  0.075848
    10 z       0.094696 -0.069799  0.137544 -0.432649 -0.036935 -0.493918
    11 x      -0.075483 -0.016759 -0.098517  0.100035 -0.065517  0.236446
    11 y      -0.040747  0.167351 -0.020044  0.020354 -0.013330  0.132092
    11 z      -0.076344  0.015757  0.108103 -0.109770  0.071894  0.239971
    12 x      -0.063670 -0.132638  0.004777 -0.220848 -0.196335  0.087928
    12 y       0.107433  0.301005  0.000973 -0.044935 -0.039948 -0.253744
    12 z      -0.038103 -0.065063 -0.005243  0.242338  0.215440  0.033080


  Frequency     263.3409  308.3566  329.8876  355.7179  388.5973  401.8887
  IR Intensity    0.0744    0.0026    0.0227    0.0080    0.0013    0.0043
     in X         0.0003    0.0011    0.0126    0.0021    0.0002    0.0019
     in Y         0.0729    0.0000    0.0004    0.0032    0.0010    0.0001
     in Z         0.0012    0.0014    0.0098    0.0027    0.0000    0.0023
  Raman Intsty    0.3529    0.0000    0.3262    0.0049    1.4183    0.0000

     1 x       0.120017  0.208074  0.005363  0.081647 -0.065163 -0.040724
     1 y      -0.367348  0.042336 -0.121695 -0.189352  0.106654 -0.008285
     1 z       0.041260 -0.228321 -0.017677  0.039297 -0.039609  0.044686
     2 x      -0.009369 -0.162249 -0.137893  0.036692  0.110154 -0.361299
     2 y      -0.091477  0.118170  0.110559  0.181450  0.013682  0.030175
     2 z      -0.109675 -0.011569 -0.157008  0.047307 -0.130653 -0.273929
     3 x      -0.091637  0.050460 -0.188562  0.017364 -0.118132  0.312690
     3 y      -0.108216 -0.140915  0.100249  0.177518 -0.032766 -0.040066
     3 z      -0.019402  0.134236 -0.101408  0.068515  0.119843  0.327270
     4 x      -0.307631 -0.103427 -0.061942 -0.093733  0.060834  0.014970
     4 y       0.072405 -0.021044 -0.082619 -0.036926  0.010554  0.003046
     4 z      -0.266925  0.113491 -0.071768 -0.092267  0.057397 -0.016425
     5 x       0.176305 -0.106179  0.011000  0.136752 -0.102838  0.015397
     5 y       0.247003 -0.021604  0.000066 -0.008384  0.075978  0.003133
     5 z       0.206471  0.116511  0.010037  0.123070 -0.079630 -0.016895
     6 x      -0.024516  0.322674  0.475049 -0.056307 -0.039395  0.091501
     6 y      -0.022767  0.065653 -0.094429  0.317523 -0.190642  0.018618
     6 z      -0.026564 -0.354073  0.415413  0.007562 -0.071250 -0.100404
     7 x       0.053569  0.036694 -0.025358 -0.124510 -0.011326  0.053580
     7 y      -0.175625  0.071017  0.030589  0.089313  0.299754 -0.007338
     7 z       0.199665 -0.360597  0.172814  0.228151  0.248402  0.080427
     8 x      -0.077856 -0.105811  0.036039  0.048634 -0.142701 -0.037074
     8 y       0.047407 -0.001075 -0.014148  0.021167 -0.147865 -0.008438
     8 z       0.143254  0.107980  0.037491 -0.063696  0.135878  0.017886
     9 x       0.122907 -0.094162  0.043145 -0.060772  0.143996 -0.014955
     9 y       0.088255 -0.039612 -0.012702 -0.001093 -0.089533 -0.002149
     9 z      -0.077044  0.111451  0.029693  0.056357 -0.178718  0.039205
    10 x       0.232825  0.361286  0.160584  0.193185  0.187215 -0.085792
    10 y      -0.139153  0.009958  0.068421  0.153952  0.340151  0.000785
    10 z       0.002966 -0.076110 -0.031222 -0.120459  0.030542 -0.045079
    11 x      -0.025276 -0.273851 -0.105740 -0.310070  0.288199  0.379832
    11 y       0.050043 -0.055719  0.388625 -0.506165 -0.376287  0.077282
    11 z      -0.013755  0.300499 -0.024303 -0.376428  0.192873 -0.416793
    12 x      -0.172981 -0.151961 -0.150151  0.105112 -0.296826 -0.311005
    12 y       0.508138 -0.030919 -0.389993 -0.231509 -0.026464 -0.063279
    12 z      -0.063420  0.166748 -0.209149  0.052864 -0.275412  0.341266


  Frequency     418.8505  432.0279  477.2100  493.0112  511.5387  561.3626
  IR Intensity    0.0004    0.0223    0.0031    0.0191    0.0095    0.0946
     in X         0.0001    0.0099    0.0007    0.0010    0.0042    0.0525
     in Y         0.0002    0.0004    0.0021    0.0180    0.0002    0.0014
     in Z         0.0001    0.0120    0.0003    0.0000    0.0051    0.0407
  Raman Intsty    0.0018    0.0000    6.1687    2.4226    0.0000    0.0036

     1 x       0.019810 -0.080334  0.082316  0.029987  0.048230  0.003606
     1 y       0.032344 -0.016345 -0.240763 -0.082106  0.009813  0.007005
     1 z       0.024051  0.088151  0.030373  0.012103 -0.052923  0.004586
     2 x       0.153222  0.085389 -0.029140  0.071846 -0.101589 -0.358765
     2 y       0.041873  0.068571  0.095409 -0.076525 -0.423994  0.048910
     2 z      -0.157050 -0.199569  0.024873 -0.045369  0.044593 -0.310491
     3 x      -0.144332  0.198140  0.003834 -0.022620 -0.109314 -0.351541
     3 y      -0.018668 -0.010882  0.102118 -0.095742  0.381083  0.050379
     3 z       0.169454 -0.111549 -0.011308  0.058289  0.186831 -0.318415
     4 x       0.023539 -0.003065 -0.163154 -0.041107  0.038359 -0.035909
     4 y       0.070049 -0.000624 -0.265811 -0.089662  0.007805 -0.075343
     4 z       0.034440  0.003363 -0.197973 -0.054087 -0.042091 -0.046695
     5 x       0.030144 -0.004153  0.289034  0.114059  0.023601 -0.003725
     5 y      -0.053602 -0.000845 -0.071921 -0.051429  0.004803  0.024429
     5 z       0.017532  0.004558  0.250067  0.094408 -0.025900  0.001135
     6 x       0.080414 -0.277721  0.004694 -0.041827  0.108596  0.038124
     6 y       0.618241 -0.056505  0.009300 -0.256326  0.022098  0.087720
     6 z       0.187917  0.304746  0.006002 -0.085647 -0.119162  0.051008
     7 x       0.088669  0.041198  0.136594  0.043919  0.001816  0.027248
     7 y      -0.118511 -0.123308  0.256230  0.363863 -0.529008  0.020507
     7 z      -0.241694 -0.140562 -0.339519 -0.082766 -0.081470  0.051488
     8 x      -0.231705  0.224807  0.126548 -0.204332  0.018226  0.010628
     8 y      -0.197967  0.171012  0.080405 -0.177380  0.040519 -0.016190
     8 z       0.223857 -0.228996 -0.127936  0.193176 -0.008860  0.036666
     9 x       0.229330  0.230223 -0.125774  0.198607  0.014008  0.039931
     9 y      -0.104162 -0.078429  0.029066 -0.095396 -0.033959 -0.010228
     9 z      -0.282042 -0.270313  0.148940 -0.248973 -0.026510  0.004511
    10 x      -0.205048  0.110527 -0.363329 -0.142030 -0.016439  0.049585
    10 y      -0.178273  0.154177  0.154514  0.326034  0.526029  0.025051
    10 z       0.080605 -0.025928  0.209051  0.121278  0.097518  0.026978
    11 x       0.022211 -0.226601  0.209420 -0.299243 -0.020583  0.293223
    11 y      -0.044864 -0.046105 -0.111145  0.257584 -0.004189 -0.205960
    11 z       0.011924  0.248651  0.170239 -0.224943  0.022588  0.229030
    12 x      -0.071753 -0.337351 -0.181967  0.277562  0.026264  0.423025
    12 y      -0.057104 -0.068639 -0.029116  0.025833  0.005344  0.023352
    12 z      -0.075981  0.370178 -0.171229  0.257738 -0.028822  0.389842


  Frequency     573.9868  618.7410  694.6997  781.4891  785.9233  917.2767
  IR Intensity    0.1040    0.1699    0.0207    0.0084    0.0230    0.0002
     in X         0.0463    0.0001    0.0007    0.0031    0.0102    0.0000
     in Y         0.0019    0.1656    0.0200    0.0018    0.0004    0.0001
     in Z         0.0558    0.0042    0.0000    0.0035    0.0123    0.0000
  Raman Intsty    0.0000    0.0059    0.6279    0.0584    0.0000    2.5582

     1 x      -0.492398 -0.019890 -0.168454 -0.520845 -0.015067  0.002795
     1 y      -0.100186  0.075910  0.678221 -0.132368 -0.003066  0.117524
     1 z       0.540313 -0.004051 -0.027759 -0.499201  0.016532  0.024339
     2 x      -0.037265  0.108609 -0.022869 -0.006877  0.323488  0.405579
     2 y      -0.177303  0.523382 -0.122414 -0.013508 -0.136143 -0.067698
     2 z       0.035340 -0.036964  0.065398 -0.035951 -0.398497 -0.472095
     3 x      -0.062596 -0.119102  0.083600 -0.033441  0.329434 -0.404793
     3 y       0.156984  0.477052 -0.100751 -0.018913  0.268990 -0.232581
     3 z       0.074240  0.212905 -0.051431 -0.006802 -0.317960  0.417133
     4 x       0.029118 -0.046613 -0.196039  0.187340 -0.003808 -0.016947
     4 y       0.005924 -0.065244 -0.404936  0.304992 -0.000774 -0.029611
     4 z      -0.031952 -0.054577 -0.253739  0.227279  0.004179 -0.020935
     5 x       0.027036  0.075022  0.284949  0.387704 -0.001130  0.000621
     5 y       0.005501 -0.033247 -0.103642 -0.114143 -0.000230 -0.006898
     5 z      -0.029666  0.062205  0.240463  0.332158  0.001241 -0.000713
     6 x       0.037017 -0.050694  0.001611  0.011280 -0.056940 -0.006148
     6 y       0.007532 -0.427254  0.077662 -0.011663 -0.011585 -0.038838
     6 z      -0.040619 -0.125421  0.015868  0.008117  0.062481 -0.012804
     7 x       0.150656  0.014495 -0.041372  0.007990 -0.006968  0.006925
     7 y       0.169221 -0.265286 -0.070812 -0.009705 -0.034401  0.004951
     7 z      -0.361043 -0.072632  0.118125  0.035868 -0.001431 -0.000544
     8 x      -0.008740 -0.080112 -0.033417  0.015570 -0.278759  0.185797
     8 y      -0.031125 -0.089004 -0.022846  0.015902 -0.226326  0.152309
     8 z       0.006287  0.074243  0.029077 -0.011141  0.272171 -0.180859
     9 x      -0.010830  0.079932  0.028906 -0.012068 -0.276545 -0.184052
     9 y       0.027143 -0.056441 -0.010166  0.010278  0.113341  0.077058
     9 z       0.015187 -0.101375 -0.039310  0.019186  0.337170  0.224980
    10 x       0.367061 -0.021326  0.123759  0.037687 -0.004073 -0.000671
    10 y      -0.063884 -0.272572 -0.037214 -0.003663  0.032155  0.003406
    10 z      -0.207052 -0.033325 -0.063075  0.003281  0.013548  0.007792
    11 x       0.046107  0.015574 -0.011106  0.018157 -0.059116 -0.060277
    11 y       0.009381 -0.047601  0.021301  0.001770 -0.012028  0.046311
    11 z      -0.050594  0.005367 -0.006171  0.016875  0.064868 -0.046344
    12 x       0.068334  0.049928 -0.028925  0.015041 -0.072752  0.070484
    12 y       0.013904 -0.025962  0.008391  0.002600 -0.014802  0.009089
    12 z      -0.074984  0.040687 -0.024804  0.014189  0.079831  0.065919




--------------------------------------------------------------------------------
  Vibrational properties (for cluster):  Temperature  =       0.000 K
--------------------------------------------------------------------------------
  Zero point energy            =        0.708931 eV
--------------------------------------------------------------------------------

  Phonon density of states : 

--------------------------------------------------------------------------------
 Frequency (cm-1) Density of States                                             
--------------------------------------------------------------------------------
    0.00000 |****************************************                      0.057
   14.33245 |********************                                          0.029
   28.66490 |****************************************                      0.057
   42.99735 |                                                              0.000
   57.32980 |                                                              0.000
   71.66225 |                                                              0.000
   85.99470 |********************                                          0.029
  100.32715 |****************************************                      0.057
  114.65960 |                                                              0.000
  128.99205 |                                                              0.000
  143.32450 |************************************************************  0.086
  157.65695 |                                                              0.000
  171.98940 |********************                                          0.029
  186.32185 |                                                              0.000
  200.65430 |                                                              0.000
  214.98675 |****************************************                      0.057
  229.31920 |********************                                          0.029
  243.65165 |********************                                          0.029
  257.98410 |****************************************                      0.057
  272.31655 |                                                              0.000
  286.64899 |                                                              0.000
  300.98144 |********************                                          0.029
  315.31389 |                                                              0.000
  329.64634 |********************                                          0.029
  343.97879 |********************                                          0.029
  358.31124 |                                                              0.000
  372.64369 |                                                              0.000
  386.97614 |********************                                          0.029
  401.30859 |********************                                          0.029
  415.64104 |********************                                          0.029
  429.97349 |********************                                          0.029
  444.30594 |                                                              0.000
  458.63839 |                                                              0.000
  472.97084 |********************                                          0.029
  487.30329 |********************                                          0.029
  501.63574 |********************                                          0.029
  515.96819 |                                                              0.000
  530.30064 |                                                              0.000
  544.63309 |                                                              0.000
  558.96554 |********************                                          0.029
  573.29799 |********************                                          0.029
  587.63044 |                                                              0.000
  601.96289 |                                                              0.000
  616.29534 |********************                                          0.029
  630.62779 |                                                              0.000
  644.96024 |                                                              0.000
  659.29269 |                                                              0.000
  673.62514 |                                                              0.000
  687.95759 |********************                                          0.029
  702.29004 |                                                              0.000
  716.62249 |                                                              0.000
  730.95494 |                                                              0.000
  745.28739 |                                                              0.000
  759.61984 |                                                              0.000
  773.95229 |****************************************                      0.057
  788.28474 |                                                              0.000
  802.61719 |                                                              0.000
  816.94964 |                                                              0.000
  831.28208 |                                                              0.000
  845.61453 |                                                              0.000
  859.94698 |                                                              0.000
  874.27943 |                                                              0.000
  888.61188 |                                                              0.000
  902.94433 |********************                                          0.029
--------------------------------------------------------------------------------



  Time to end of optimisation =       0.0380 seconds


  Peak dynamic memory used =       0.65 MB 


  Timing analysis for GULP :

--------------------------------------------------------------------------------
  Task / Subroutine                                          Time (Seconds)
--------------------------------------------------------------------------------
  Calculation of real space energy and derivatives                0.0023
  Calculation of phonons                                          0.0017
  Calculation and manipulation of Hessian matrix                  0.0015
--------------------------------------------------------------------------------
  Total CPU time                                                  0.0380
--------------------------------------------------------------------------------


  Job Finished at 14:40.02 25th May        2022                               

