------------------------------------------------------------
          Invoking FHI-aims ...

          When using FHI-aims, please cite the following reference:

            Volker Blum, Ralf Gehrke, Felix Hanke, Paula Havu,
            Ville Havu, Xinguo Ren, Karsten Reuter, and Matthias Scheffler,
            'Ab Initio Molecular Simulations with Numeric Atom-Centered Orbitals',
            Computer Physics Communications 180, 2175-2196 (2009)

          In addition, many other developments in FHI-aims are likely important for
          your particular application. A partial list of references is given at the end of
          this file. Thank you for giving credit to the authors of these developments.

          For any questions about FHI-aims, please visit our slack channel at

            https://fhi-aims.slack.com

          and our main development and support site at

            https://aims-git.rz-berlin.mpg.de .

          The latter site, in particular, has a wiki to collect information, as well
          as an issue tracker to log discussions, suggest improvements, and report issues
          or bugs. https://aims-git.rz-berlin.mpg.de is also the main development site
          of the project and all new and updated code versions can be obtained there.
          Please send an email to aims-coordinators@fhi-berlin.mpg.de and we will add
          you to these sites. They are for you and everyone is welcome there.

------------------------------------------------------------



  Date     :  20220517, Time     :  120731.786
  Time zero on CPU 1             :   0.420580000000000E-01  s.
  Internal wall clock time zero  :           422021251.786  s.

  FHI-aims created a unique identifier for this run for later identification
  aims_uuid : 59EF53E8-3B12-44F5-A7B0-E220C3E69299

  Build configuration of the current instance of FHI-aims
  -------------------------------------------------------
  FHI-aims version      : 210914
  Commit number         : GITDIR-NOTFOUND
  CMake host system     : Linux-3.10.0-693.17.1.el7.x86_64
  CMake version         : 3.21.1
  Fortran compiler      : /shared/ucl/apps/intel/2018.Update3/impi/2018.3.222/intel64/bin/mpiifort (Intel) version 18.0.3.20180410
  Fortran compiler flags: -O3 -ip -fp-model precise
  C compiler            : /shared/ucl/apps/intel/2018.Update3/compilers_and_libraries_2018.3.222/linux/bin/intel64/icc (Intel) version 18.0.3.20180410
  C compiler flags      : -O3 -ip -fp-model precise -std=gnu99
  ELPA2 kernel          : AVX2
  Using MPI
  Using ScaLAPACK
  Using LibXC
  Using i-PI
  Using RLSY
  Linking against: /shared/ucl/apps/intel/2019.Update5/compilers_and_libraries_2019.5.281/linux/mkl/lib/intel64/libmkl_intel_lp64.so
                   /shared/ucl/apps/intel/2019.Update5/compilers_and_libraries_2019.5.281/linux/mkl/lib/intel64/libmkl_sequential.so
                   /shared/ucl/apps/intel/2019.Update5/compilers_and_libraries_2019.5.281/linux/mkl/lib/intel64/libmkl_core.so
                   /shared/ucl/apps/intel/2019.Update5/compilers_and_libraries_2019.5.281/linux/mkl/lib/intel64/libmkl_blacs_intelmpi_lp64.so
                   /shared/ucl/apps/intel/2019.Update5/compilers_and_libraries_2019.5.281/linux/mkl/lib/intel64/libmkl_scalapack_lp64.so

  Using       24 parallel tasks.
  Task        0 on host node-k98a-014 reporting.
  Task        1 on host node-k98a-014 reporting.
  Task        2 on host node-k98a-014 reporting.
  Task        3 on host node-k98a-014 reporting.
  Task        4 on host node-k98a-014 reporting.
  Task        5 on host node-k98a-014 reporting.
  Task        6 on host node-k98a-014 reporting.
  Task        7 on host node-k98a-014 reporting.
  Task        8 on host node-k98a-014 reporting.
  Task        9 on host node-k98a-014 reporting.
  Task       10 on host node-k98a-014 reporting.
  Task       11 on host node-k98a-014 reporting.
  Task       12 on host node-k98a-014 reporting.
  Task       13 on host node-k98a-014 reporting.
  Task       14 on host node-k98a-014 reporting.
  Task       15 on host node-k98a-014 reporting.
  Task       16 on host node-k98a-014 reporting.
  Task       17 on host node-k98a-014 reporting.
  Task       18 on host node-k98a-014 reporting.
  Task       19 on host node-k98a-014 reporting.
  Task       20 on host node-k98a-014 reporting.
  Task       21 on host node-k98a-014 reporting.
  Task       22 on host node-k98a-014 reporting.
  Task       23 on host node-k98a-014 reporting.

  Performing system and environment tests:
  | Environment variable OMP_NUM_THREADS correctly set to 1.
  | Checking for ScaLAPACK...
  | Testing pdtran()...
  | All pdtran() tests passed.

  Obtaining array dimensions for all initial allocations:
  
  -----------------------------------------------------------------------
  Parsing control.in (first pass over file, find array dimensions only).
  The contents of control.in will be repeated verbatim below
  unless switched off by setting 'verbatim_writeout .false.' .
  in the first line of control.in .
  -----------------------------------------------------------------------
  
  #########################################################################################  Physical model
  #########################################################################################
  xc                 pbesol
  spin               none
  relativistic       atomic_zora scalar
  charge             0.0
  #  SCF convergence
  occupation_type    gaussian 0.01
  mixer              pulay
  n_max_pulay        10
  charge_mix_param   0.5
  sc_accuracy_rho    1E-5
  sc_accuracy_eev    1E-3
  sc_accuracy_etot   1E-6
  sc_accuracy_forces 1E-4
  sc_iter_limit      1500
  #  Relaxation
  #relax_geometry   bfgs 1.e-3
  
  ################################################################################
  #
  #  FHI-aims code project
  #  VB, Fritz-Haber Institut, 2009
  #
  #  Suggested "light" defaults for Al atom (to be pasted into control.in file)
  #  Be sure to double-check any results obtained with these settings for post-processing,
  #  e.g., with the "tight" defaults and larger basis sets.
  #
  ################################################################################
    species        Al
  #     global species definitions
      nucleus             13
      mass                26.9815386
  #
      l_hartree           4
  #
      cut_pot             3.5          1.5  1.0
      basis_dep_cutoff    1e-4
  #
      radial_base         41 5.0
      radial_multiplier   1
      angular_grids       specified
        division   0.6594  110
        division   0.8170  194
        division   0.9059  302
  #      division   1.0363  434
  #      division   1.1443  590
  #      division   1.2621  770
  #      division   2.8177  974
  #      outer_grid   974
        outer_grid   302
  ################################################################################
  #
  #  Definition of "minimal" basis
  #
  ################################################################################
  #     valence basis states
      valence      3  s   2.
      valence      3  p   1.
  #     ion occupancy
      ion_occ      3  s   1.
      ion_occ      2  p   6.
  ################################################################################
  #
  #  Suggested additional basis functions. For production calculations,
  #  uncomment them one after another (the most important basis functions are
  #  listed first).
  #
  #  Constructed for dimers: 2.0 A, 2.5 A, 3.0 A, 3.75 A, 4.5 A
  #
  ################################################################################
  #  "First tier" - improvements: -199.47 meV to -10.63 meV
       ionic 3 d auto
       ionic 3 p auto
  #     hydro 4 f 4.7
       ionic 3 s auto
  #  "Second tier" - improvements: -5.35 meV to -1.57 meV
  #     hydro 5 g 7
  #     hydro 3 d 6
  #     hydro 2 s 11.6
  #     hydro 2 p 0.9
  #  "Third tier" - improvements: -0.63 meV to -0.20 meV
  #     hydro 5 f 7.6
  #     hydro 4 p 7.2
  #     hydro 4 s 3.7
  #     hydro 4 d 7.6
  #  "Fourth tier" - improvements: -0.17 meV to -0.08 meV
  #     hydro 4 d 13.6
  #     hydro 5 g 11.2
  #     hydro 4 d 0.9
  #     hydro 1 s 0.4
  #     hydro 4 p 0.1
  #     hydro 5 f 9.8
  #  Further basis functions that fell out of the optimization - noise level...
  #     hydro 4 p 5
  
  ################################################################################
  #
  #  FHI-aims code project
  #  VB, Fritz-Haber Institut, 2009
  #
  #  Suggested "light" defaults for F atom (to be pasted into control.in file)
  #  Be sure to double-check any results obtained with these settings for post-processing,
  #  e.g., with the "tight" defaults and larger basis sets.
  #
  ################################################################################
    species        F
  #     global species definitions
      nucleus             9
      mass                18.9984032
  #
      l_hartree           4
  #
      cut_pot             3.5  1.5  1.0
      basis_dep_cutoff    1e-4
  #
      radial_base         37 5.0
      radial_multiplier   1
      angular_grids specified
        division   0.4014  110
        division   0.5291  194
        division   0.6019  302
  #      division   0.6814  434
  #      division   0.7989  590
  #      division   0.8965  770
  #      division   1.3427  974
  #      outer_grid   974
        outer_grid   302
  ################################################################################
  #
  #  Definition of "minimal" basis
  #
  ################################################################################
  #     valence basis states
      valence      2  s   2.
      valence      2  p   5.
  #     ion occupancy
      ion_occ      2  s   1.
      ion_occ      2  p   4.
  ################################################################################
  #
  #  Suggested additional basis functions. For production calculations,
  #  uncomment them one after another (the most important basis functions are
  #  listed first).
  #
  #  Constructed for dimers: 1.2 A, 1.418 A, 1.75 A, 2.25 A, 3.25 A
  #
  ################################################################################
  #  "First tier" - improvements: -149.44 meV to -45.88 meV
       hydro 2 p 1.7
       hydro 3 d 7.4
       hydro 3 s 6.8
  #  "Second tier" - improvements: -12.96 meV to -1.56 meV
  #     hydro 4 f 11.2
  #     ionic 2 p auto
  #     hydro 1 s 0.75
  #     hydro 4 d 8.8
  #     hydro 5 g 16.8
  #  "Third tier" - improvements: -0.58 meV to -0.05 meV
  #     hydro 3 p 6.2
  #     hydro 3 s 3.2
  #     hydro 4 f 9.6
  #     hydro 3 s 19.6
  #     hydro 4 d 8.6
  #     hydro 5 g 14.4
  # Further basis functions: -0.05 meV and below
  #     hydro 3 p 4.2
  
  -----------------------------------------------------------------------
  Completed first pass over input file control.in .
  -----------------------------------------------------------------------
  
  
  -----------------------------------------------------------------------
  Parsing geometry.in (first pass over file, find array dimensions only).
  The contents of geometry.in will be repeated verbatim below
  unless switched off by setting 'verbatim_writeout .false.' .
  in the first line of geometry.in .
  -----------------------------------------------------------------------
  
  atom -0.025245413 1.592365972 2.199149220 Al
  atom 2.539634896 2.532859825 1.673441175 Al
  atom 1.277488484 2.770590984 -0.674685254 Al
  atom 1.061272178 3.082062536 2.758781263 F
  atom -1.454871483 2.754015522 2.211237186 F
  atom -0.581552671 -0.038819066 2.782553430 F
  atom 1.840408553 0.790696793 1.994765465 F
  atom 2.891666945 1.890892253 -0.103911616 F
  atom 1.135351809 3.016900533 -2.463044612 F
  atom 1.737866894 4.069831787 0.613100467 F
  atom 3.981177768 3.180234377 2.611634380 F
  atom 0.046111009 1.726802610 0.220433893 F
  
  -----------------------------------------------------------------------
  Completed first pass over input file geometry.in .
  -----------------------------------------------------------------------
  

  Basic array size parameters:
  | Number of species                 :        2
  | Number of atoms                   :       12
  | Max. basis fn. angular momentum   :        2
  | Max. atomic/ionic basis occupied n:        3
  | Max. number of basis fn. types    :        3
  | Max. radial fns per species/type  :        5
  | Max. logarithmic grid size        :     1340
  | Max. radial integration grid size :       41
  | Max. angular integration grid size:      302
  | Max. angular grid division number :        8
  | Radial grid for Hartree potential :     1340
  | Number of spin channels           :        1

------------------------------------------------------------
          Reading file control.in.
------------------------------------------------------------
  XC: Using PBEsol gradient-corrected functionals.
  Spin treatment: No spin polarisation.
  Scalar relativistic treatment of kinetic energy: on-site free-atom approximation to ZORA.
  Charge =   0.000000E+00: Neutral system requested explicitly.
  Occupation type: Gaussian broadening, width =   0.100000E-01 eV.
  Using pulay charge density mixing.
  Pulay mixing - number of memorized iterations:   10
  Charge density mixing - mixing parameter:     0.5000
  Convergence accuracy of self-consistent charge density:  0.1000E-04
  Convergence accuracy of sum of eigenvalues:  0.1000E-02
  Convergence accuracy of total energy:  0.1000E-05
  Convergence accuracy of forces:  0.1000E-03
  Maximum number of s.-c. iterations  :  1500
 
  Reading configuration options for species Al                  .
  | Found nuclear charge :  13.0000
  | Found atomic mass :    26.9815386000000      amu
  | Found l_max for Hartree potential  :   4
  | Found cutoff potl. onset [A], width [A], scale factor :    3.50000    1.50000    1.00000
  | Threshold for basis-dependent cutoff potential is   0.100000E-03
  | Found data for basic radial integration grid :    41 points, outermost radius =    5.000 A
  | Found multiplier for basic radial grid :   1
  | Found angular grid specification: user-specified.
  | Specified grid contains     4 separate shells.
  | Check grid settings after all constraints further below.
  | Found free-atom valence shell :  3 s   2.000
  | Found free-atom valence shell :  3 p   1.000
  | Found free-ion valence shell :  3 s   1.000
  | Found free-ion valence shell :  2 p   6.000
  | Found ionic basis function :  3 d , default cutoff radius.
  | Found ionic basis function :  3 p , default cutoff radius.
  | Found ionic basis function :  3 s , default cutoff radius.
  Species Al                  : Missing cutoff potential type.
  Defaulting to exp(1/x)/(1-x)^2 type cutoff potential.
  Species Al: No 'logarithmic' tag. Using default grid for free atom:
  | Default logarithmic grid data [bohr] : 0.1000E-03 0.1000E+03 0.1012E+01
  | Will include ionic basis functions of  2.0-fold positive Al                   ion.
  Species Al: On-site basis accuracy parameter (for Gram-Schmidt orthonormalisation) not specified.
  Using default value basis_acc =  0.1000000E-03.
  Species Al                  : Using default innermost maximum threshold i_radial=  2 for radial functions.
  Species Al                  : Default cutoff onset for free atom density etc. : 0.35000000E+01 AA.
  Species Al                  : Basic radial grid will be enhanced according to radial_multiplier =   1, to contain    41 grid points.
 
  Reading configuration options for species F                   .
  | Found nuclear charge :   9.0000
  | Found atomic mass :    18.9984032000000      amu
  | Found l_max for Hartree potential  :   4
  | Found cutoff potl. onset [A], width [A], scale factor :    3.50000    1.50000    1.00000
  | Threshold for basis-dependent cutoff potential is   0.100000E-03
  | Found data for basic radial integration grid :    37 points, outermost radius =    5.000 A
  | Found multiplier for basic radial grid :   1
  | Found angular grid specification: user-specified.
  | Specified grid contains     4 separate shells.
  | Check grid settings after all constraints further below.
  | Found free-atom valence shell :  2 s   2.000
  | Found free-atom valence shell :  2 p   5.000
  | Found free-ion valence shell :  2 s   1.000
  | Found free-ion valence shell :  2 p   4.000
  | Found hydrogenic basis function :  2 p   1.700
  | Found hydrogenic basis function :  3 d   7.400
  | Found hydrogenic basis function :  3 s   6.800
  Species F                   : Missing cutoff potential type.
  Defaulting to exp(1/x)/(1-x)^2 type cutoff potential.
  Species F : No 'logarithmic' tag. Using default grid for free atom:
  | Default logarithmic grid data [bohr] : 0.1000E-03 0.1000E+03 0.1012E+01
  Species F : On-site basis accuracy parameter (for Gram-Schmidt orthonormalisation) not specified.
  Using default value basis_acc =  0.1000000E-03.
  Species F                   : Using default innermost maximum threshold i_radial=  2 for radial functions.
  Species F                   : Default cutoff onset for free atom density etc. : 0.35000000E+01 AA.
  Species F                   : Basic radial grid will be enhanced according to radial_multiplier =   1, to contain    37 grid points.
 
  Finished reading input file 'control.in'.
 
------------------------------------------------------------


------------------------------------------------------------
          Reading geometry description geometry.in.
------------------------------------------------------------
  | The smallest distance between any two atoms is         1.81082866 AA.
  | The first atom of this pair is atom number                      3 .
  | The second atom of this pair is atom number                     9 .
  Input structure read successfully.
  The structure contains       12 atoms,  and a total of        120.000 electrons.

  Input geometry:
  | No unit cell requested.
  | Atomic structure:
  |       Atom                x [A]            y [A]            z [A]
  |    1: Species Al           -0.02524541        1.59236597        2.19914922
  |    2: Species Al            2.53963490        2.53285983        1.67344118
  |    3: Species Al            1.27748848        2.77059098       -0.67468525
  |    4: Species F             1.06127218        3.08206254        2.75878126
  |    5: Species F            -1.45487148        2.75401552        2.21123719
  |    6: Species F            -0.58155267       -0.03881907        2.78255343
  |    7: Species F             1.84040855        0.79069679        1.99476546
  |    8: Species F             2.89166694        1.89089225       -0.10391162
  |    9: Species F             1.13535181        3.01690053       -2.46304461
  |   10: Species F             1.73786689        4.06983179        0.61310047
  |   11: Species F             3.98117777        3.18023438        2.61163438
  |   12: Species F             0.04611101        1.72680261        0.22043389

 
  Finished reading input file 'control.in'.
 

------------------------------------------------------------
          Reading geometry description geometry.in.
------------------------------------------------------------
 
  Consistency checks for stacksize environment parameter are next.
 
  | Maximum stacksize for task 0: unlimited
  | Maximum stacksize for task 1: unlimited
  | Maximum stacksize for task 2: unlimited
  | Maximum stacksize for task 3: unlimited
  | Maximum stacksize for task 4: unlimited
  | Maximum stacksize for task 5: unlimited
  | Maximum stacksize for task 6: unlimited
  | Maximum stacksize for task 7: unlimited
  | Maximum stacksize for task 8: unlimited
  | Maximum stacksize for task 9: unlimited
  | Maximum stacksize for task 10: unlimited
  | Maximum stacksize for task 11: unlimited
  | Maximum stacksize for task 12: unlimited
  | Maximum stacksize for task 13: unlimited
  | Maximum stacksize for task 14: unlimited
  | Maximum stacksize for task 15: unlimited
  | Maximum stacksize for task 16: unlimited
  | Maximum stacksize for task 17: unlimited
  | Maximum stacksize for task 18: unlimited
  | Maximum stacksize for task 19: unlimited
  | Maximum stacksize for task 20: unlimited
  | Maximum stacksize for task 21: unlimited
  | Maximum stacksize for task 22: unlimited
  | Maximum stacksize for task 23: unlimited
  | Current stacksize for task 0: unlimited
  | Current stacksize for task 1: unlimited
  | Current stacksize for task 2: unlimited
  | Current stacksize for task 3: unlimited
  | Current stacksize for task 4: unlimited
  | Current stacksize for task 5: unlimited
  | Current stacksize for task 6: unlimited
  | Current stacksize for task 7: unlimited
  | Current stacksize for task 8: unlimited
  | Current stacksize for task 9: unlimited
  | Current stacksize for task 10: unlimited
  | Current stacksize for task 11: unlimited
  | Current stacksize for task 12: unlimited
  | Current stacksize for task 13: unlimited
  | Current stacksize for task 14: unlimited
  | Current stacksize for task 15: unlimited
  | Current stacksize for task 16: unlimited
  | Current stacksize for task 17: unlimited
  | Current stacksize for task 18: unlimited
  | Current stacksize for task 19: unlimited
  | Current stacksize for task 20: unlimited
  | Current stacksize for task 21: unlimited
  | Current stacksize for task 22: unlimited
  | Current stacksize for task 23: unlimited
 
  Consistency checks for the contents of control.in are next.
 
  MPI_IN_PLACE appears to work with this MPI implementation.
  | Keeping use_mpi_in_place .true. (see manual).
  Target number of points in a grid batch is not set. Defaulting to  100
  Method for grid partitioning is not set. Defaulting to parallel hash+maxmin partitioning.
  Batch size limit is not set. Defaulting to    200
  By default, will store active basis functions for each batch.
  If in need of memory, prune_basis_once .false. can be used to disable this option.
  communication_type for Hartree potential was not specified.
  Defaulting to calc_hartree .
  Pulay mixer: Number of initial linear mixing iterations not set.
  Defaulting to    0 iterations.
  Work space size for distributed Hartree potential not set.
  Defaulting to   0.200000E+03 MB.
  Algorithm-dependent basis array size parameters:
  | n_max_pulay                         :       10
  Presetting      1001 iterations before the initial mixing cycle
  is restarted anyway using the sc_init_iter criterion / keyword.
  Presetting a factor      1.000 between actual scf density residual
  and density convergence criterion sc_accuracy_rho below which sc_init_iter
  takes no effect.
  Geometry relaxation not requested: no relaxation will be performed.
  Forces evaluation will include force correction term due to incomplete self-consistency (default).
  Handling of forces: Unphysical translation and rotation will be removed from forces.
  No accuracy limit for integral partition fn. given. Defaulting to  0.1000E-14.
  No threshold value for u(r) in integrations given. Defaulting to  0.1000E-05.
  No accuracy for occupation numbers given. Defaulting to  0.1000E-12.
  No threshold value for occupation numbers given. Defaulting to  0.0000E+00.
  No accuracy for fermi level given. Defaulting to  0.1000E-19.
  Maximum # of iterations to find E_F not set. Defaulting to  200.
  Preferred method for the eigenvalue solver ('KS_method') not specified in 'control.in'.
  Calling BLACS routine to test compilation state
  Since ScaLAPACK support is enabled, defaulting to ELPA (via ELSI).
  Will not use alltoall communication since running on < 1024 CPUs.
  Threshold for basis singularities not set.
  Default threshold for basis singularities:  0.1000E-04
  partition_type (choice of integration weights) for integrals was not specified.
  | Using a version of the partition function of Stratmann and coworkers ('stratmann_sparse').
  | At each grid point, the set of atoms used to build the partition table is smoothly restricted to
  | only those atoms whose free-atom density would be non-zero at that grid point.
  Partitioning for Hartree potential was not defined. Using partition_type for integrals.
  | Adjusted default value of keyword multip_moments_threshold to:       0.10000000E-11
  | This value may affect high angular momentum components of the Hartree potential in periodic systems.
  No q(lm)/r^(l+1) cutoff set for long-range Hartree potential.
  | Using default value of  0.100000E-09 .
  | Verify using the multipole_threshold keyword.
  Defaulting to new monopole extrapolation.
  Density update method: automatic selection selected.
  Charge integration errors on the 3D integration grid will be compensated
  by explicit normalization and distribution of residual charges.
  Use the "compensate_multipole_errors" flag to change this behaviour.
  Set 'collect_eigenvectors' to be '.true.' for use_density_matrix .false.
 
  Consistency checks for the contents of geometry.in are next.
 
  Number of empty states per atom not set in control.in - providing a guess from actual geometry.
  | Total number of empty states used during s.c.f. cycle:       36
  If you use a very high smearing, use empty_states (per atom!) in control.in to increase this value.

  Structure-dependent array size parameters: 
  | Maximum number of distinct radial functions  :       14
  | Maximum number of basis functions            :      180
  | Number of Kohn-Sham states (occupied + empty):       96
------------------------------------------------------------

------------------------------------------------------------
          Preparing all fixed parts of the calculation.
------------------------------------------------------------
  Determining machine precision:
    2.225073858507201E-308
  Setting up grids for atomic and cluster calculations.

  Creating wave function, potential, and density for free atoms.

  Species: Al

  List of occupied orbitals and eigenvalues:
    n    l              occ      energy [Ha]    energy [eV]
    1    0           2.0000       -55.621123     -1513.5278
    2    0           2.0000        -3.957030      -107.6763
    3    0           2.0000        -0.272233        -7.4078
    2    1           6.0000        -2.540949       -69.1427
    3    1           1.0000        -0.083300        -2.2667


  Species: F

  List of occupied orbitals and eigenvalues:
    n    l              occ      energy [Ha]    energy [eV]
    1    0           2.0000       -24.399611      -663.9472
    2    0           2.0000        -1.098702       -29.8972
    2    1           5.0000        -0.408210       -11.1080


  Adding cutoff potential to free-atom effective potential.
  Creating fixed part of basis set: Ionic, confined, hydrogenic.
 
  Al                   ion:

  List of free ionic orbitals and eigenvalues:
    n    l      energy [Ha]    energy [eV]
    1    0       -56.418846     -1535.2349
    2    0        -4.732717      -128.7838
    3    0        -0.872690       -23.7471
    2    1        -3.317230       -90.2664


  List of ionic basis orbitals and eigenvalues:
    n    l      energy [Ha]    energy [eV]    outer radius [A]
    3    2        -0.346815        -9.4373       4.594041
    3    1        -0.631870       -17.1940       4.538221
    3    0        -0.872657       -23.7462       4.538221

 
  F                    hydrogenic:
 
  List of hydrogenic basis orbitals: 
    n    l      effective z      eigenvalue [eV]  inner max. [A]     outer max. [A]     outer radius [A]   
    2    1         1.700000        -9.7616           1.243167           1.243167           4.598524
    3    2         7.400000       -82.7828           0.642437           0.642437           3.305741
    3    0         6.800000       -69.9026           0.057798           1.022307           3.781556
 
  Creating atomic-like basis functions for current effective potential.

  Species Al                  :

  List of atomic basis orbitals and eigenvalues:
    n    l      energy [Ha]    energy [eV]    outer radius [A]
    1    0       -55.621123     -1513.5278       0.850197
    2    0        -3.957030      -107.6763       3.144911
    3    0        -0.272233        -7.4078       4.594041
    2    1        -2.540949       -69.1427       3.731966
    3    1        -0.083300        -2.2667       4.594041


  Species F                   :

  List of atomic basis orbitals and eigenvalues:
    n    l      energy [Ha]    energy [eV]    outer radius [A]
    1    0       -24.399611      -663.9472       1.258458
    2    0        -1.098702       -29.8972       4.325857
    2    1        -0.408210       -11.1080       4.487453

  Assembling full basis from fixed parts.
  | Species Al :   atomic orbital   1 s accepted.
  | Species Al :   atomic orbital   2 s accepted.
  | Species Al :    ionic orbital   3 s accepted.
  | Species Al :   atomic orbital   3 s accepted.
  | Species Al :   atomic orbital   2 p accepted.
  | Species Al :    ionic orbital   3 p accepted.
  | Species Al :   atomic orbital   3 p accepted.
  | Species Al :    ionic orbital   3 d accepted.
  | Species F :   atomic orbital   1 s accepted.
  | Species F :    hydro orbital   3 s accepted.
  | Species F :   atomic orbital   2 s accepted.
  | Species F :   atomic orbital   2 p accepted.
  | Species F :    hydro orbital   2 p accepted.
  | Species F :    hydro orbital   3 d accepted.
 
  Basis size parameters after reduction:
  | Total number of radial functions:       14
  | Total number of basis functions :      180
 
  Per-task memory consumption for arrays in subroutine allocate_ext:
  |           4.807768MB.
  Testing on-site integration grid accuracy.
  |  Species  Function  <phi|h_atom|phi> (log., in eV)  <phi|h_atom|phi> (rad., in eV)
           1        1              -1513.5277717935              -1513.5271881332
           1        2               -107.6762691836               -107.6762662489
           1        3                 -6.9467474784                 -6.9471269649
           1        4                  5.5771951849                  5.4862107220 ***
           1        5                -69.1427313144                -69.1427312731
           1        6                 -1.5197375330                 -1.5230432022
           1        7                  6.8210948310                  6.5529872240 ***
           1        8                  4.3216540965                  4.2851170187 ***
           2        9               -663.9471986398               -663.9470363334
           2       10                 16.8514011578                 16.8512525338
           2       11                -28.4490593856                -28.4490661472
           2       12                -11.1080115307                -11.1080620173
           2       13                  7.1940182175                  7.1685154137
           2       14                 44.8544281765                 44.8543763625
 * Note: Onsite integrals marked "***" above are less accurate than
 * onsite_accuracy_threshold =    0.03000 eV. Usually, this is harmless.
 * When in doubt, tighten the "radial" and/or "radial_multiplier" flags to check.

  Preparing densities etc. for the partition functions (integrals / Hartree potential).

  Preparations completed.
  max(cpu_time)          :      0.184 s.
  Wall clock time (cpu1) :      0.184 s.
------------------------------------------------------------

------------------------------------------------------------
          Begin self-consistency loop: Initialization.

          Date     :  20220517, Time     :  120732.016
------------------------------------------------------------

  Initializing index lists of integration centers etc. from given atomic structure:
  | Number of centers in hartree potential         :        12
  | Number of centers in hartree multipole         :        12
  | Number of centers in electron density summation:        12
  | Number of centers in basis integrals           :        12
  | Number of centers in integrals                 :        12
  | Number of centers in hamiltonian               :        12
  * Using 24 tasks for Scalapack Eigenvalue solver.
  Detailed listing of tasks and assigned k-points:
  (for non-periodic systems, the "k-point" denotes an internal label only)
   Task     0 k-point     1 on node-k98a-014
   Task     1 k-point     1 on node-k98a-014
   Task     2 k-point     1 on node-k98a-014
   Task     3 k-point     1 on node-k98a-014
   Task     4 k-point     1 on node-k98a-014
   Task     5 k-point     1 on node-k98a-014
   Task     6 k-point     1 on node-k98a-014
   Task     7 k-point     1 on node-k98a-014
   Task     8 k-point     1 on node-k98a-014
   Task     9 k-point     1 on node-k98a-014
   Task    10 k-point     1 on node-k98a-014
   Task    11 k-point     1 on node-k98a-014
   Task    12 k-point     1 on node-k98a-014
   Task    13 k-point     1 on node-k98a-014
   Task    14 k-point     1 on node-k98a-014
   Task    15 k-point     1 on node-k98a-014
   Task    16 k-point     1 on node-k98a-014
   Task    17 k-point     1 on node-k98a-014
   Task    18 k-point     1 on node-k98a-014
   Task    19 k-point     1 on node-k98a-014
   Task    20 k-point     1 on node-k98a-014
   Task    21 k-point     1 on node-k98a-014
   Task    22 k-point     1 on node-k98a-014
   Task    23 k-point     1 on node-k98a-014
  Tasks:    24 split into      6 X      4 BLACS grid
  Calculating block size based on n_basis =          180  max_nprow =            6  max_npcol =            4
  ScaLAPACK block size set to:           16
  Allocating        0.012 MB for ovlp
  Allocating        0.012 MB for ham
  Allocating        0.012 MB for eigenvec
  Required Scalapack workspace - INTEGER:            1  REAL:             1
  Partitioning the integration grid into batches with parallel hashing+maxmin method.
  | Number of batches:     1037
  | Maximal batch size:     200
  | Minimal batch size:      17
  | Average batch size:      88.640
  | Standard deviation of batch sizes:      24.835

  Integration load balanced across    24 MPI tasks.
  Work distribution over tasks is as follows:
  Task     0 has       3796 integration points.
  Task     1 has       3830 integration points.
  Task     2 has       3791 integration points.
  Task     3 has       3812 integration points.
  Task     4 has       3814 integration points.
  Task     5 has       3937 integration points.
  Task     6 has       3783 integration points.
  Task     7 has       3792 integration points.
  Task     8 has       3806 integration points.
  Task     9 has       3800 integration points.
  Task    10 has       3790 integration points.
  Task    11 has       3934 integration points.
  Task    12 has       3823 integration points.
  Task    13 has       3875 integration points.
  Task    14 has       3834 integration points.
  Task    15 has       3806 integration points.
  Task    16 has       3827 integration points.
  Task    17 has       3794 integration points.
  Task    18 has       3790 integration points.
  Task    19 has       3787 integration points.
  Task    20 has       3870 integration points.
  Task    21 has       3908 integration points.
  Task    22 has       3905 integration points.
  Task    23 has       3816 integration points.
  Initializing partition tables, free-atom densities, potentials, etc. across the integration grid (initialize_grid_storage).
  | initialize_grid_storage: Actual outermost partition radius vs. multipole_radius_free
  | (-- VB: in principle, multipole_radius_free should be larger, hence this output)
  | Species        1: Confinement radius =              4.999999999999999 AA, multipole_radius_free =              5.004487022111096 AA.
  | Species        1: outer_partition_radius set to              5.004487022111096 AA .
  | Species        2: Confinement radius =              4.999999999999999 AA, multipole_radius_free =              5.009370088163274 AA.
  | Species        2: outer_partition_radius set to              5.009370088163274 AA .
  | The sparse table of interatomic distances needs          1.64 kbyte instead of         1.15 kbyte of memory.
  | Using the partition_type stratmann_smoother will reduce your memory usage.
  | Net number of integration points:    91920
  | of which are non-zero points    :    85099
  Renormalizing the initial density to the exact electron count on the 3D integration grid.
  | Initial density: Formal number of electrons (from input files) :     120.0000000000
  | Integrated number of electrons on 3D grid     :     119.9999238143
  | Charge integration error                      :      -0.0000761857
  | Normalization factor for density and gradient :       1.0000006349
  Renormalizing the free-atom superposition density to the exact electron count on the 3D integration grid.
  | Formal number of electrons (from input files) :     120.0000000000
  | Integrated number of electrons on 3D grid     :     119.9999238143
  | Charge integration error                      :      -0.0000761857
  | Normalization factor for density and gradient :       1.0000006349
  Obtaining max. number of non-zero basis functions in each batch (get_n_compute_maxes).
  | Maximal number of non-zero basis functions:      171 in task     0
  | Maximal number of non-zero basis functions:      164 in task     1
  | Maximal number of non-zero basis functions:      171 in task     2
  | Maximal number of non-zero basis functions:      171 in task     3
  | Maximal number of non-zero basis functions:      167 in task     4
  | Maximal number of non-zero basis functions:      170 in task     5
  | Maximal number of non-zero basis functions:      165 in task     6
  | Maximal number of non-zero basis functions:      165 in task     7
  | Maximal number of non-zero basis functions:      171 in task     8
  | Maximal number of non-zero basis functions:      163 in task     9
  | Maximal number of non-zero basis functions:      167 in task    10
  | Maximal number of non-zero basis functions:      164 in task    11
  | Maximal number of non-zero basis functions:      171 in task    12
  | Maximal number of non-zero basis functions:      171 in task    13
  | Maximal number of non-zero basis functions:      166 in task    14
  | Maximal number of non-zero basis functions:      165 in task    15
  | Maximal number of non-zero basis functions:      172 in task    16
  | Maximal number of non-zero basis functions:      165 in task    17
  | Maximal number of non-zero basis functions:      171 in task    18
  | Maximal number of non-zero basis functions:      162 in task    19
  | Maximal number of non-zero basis functions:      171 in task    20
  | Maximal number of non-zero basis functions:      166 in task    21
  | Maximal number of non-zero basis functions:      165 in task    22
  | Maximal number of non-zero basis functions:      165 in task    23
  Selecting the method for density update.
  Loop over occupied states selected for charge density update.
  Allocating        0.132 MB for KS_eigenvector
  Integrating Hamiltonian matrix: batch-based integration.
  Time summed over all CPUs for integration: real work        0.755 s, elapsed        0.790 s
  Integrating overlap matrix.
  Time summed over all CPUs for integration: real work        0.285 s, elapsed        0.298 s
  Deallocating overlap matrix.

  Updating Kohn-Sham eigenvalues and eigenvectors using ELSI and the ELPA eigensolver.
  Overlap matrix is not singular
  | Lowest and highest eigenvalues :  0.3075E-02,  0.5744E+01
  Finished singularity check of overlap matrix
  | Time :     0.003 s
  Starting ELPA eigensolver
  Finished Cholesky decomposition
  | Time :     0.003 s
  Finished transformation to standard eigenproblem
  | Time :     0.000 s
  Finished solving standard eigenproblem
  | Time :     0.004 s
  Finished back-transformation of eigenvectors
  | Time :     0.000 s

  Obtaining occupation numbers and chemical potential using ELSI.
  | Chemical potential (Fermi level):    -7.35529491 eV
  Writing Kohn-Sham eigenvalues.

  State    Occupation    Eigenvalue [Ha]    Eigenvalue [eV]
      1       2.00000         -55.486101        -1509.85362
      2       2.00000         -55.484657        -1509.81432
      3       2.00000         -55.483997        -1509.79637
      4       2.00000         -24.361327         -662.90543
      5       2.00000         -24.358663         -662.83294
      6       2.00000         -24.358019         -662.81542
      7       2.00000         -24.353516         -662.69289
      8       2.00000         -24.351333         -662.63350
      9       2.00000         -24.341169         -662.35692
     10       2.00000         -24.340185         -662.33013
     11       2.00000         -24.338103         -662.27348
     12       2.00000         -24.337690         -662.26224
     13       2.00000          -3.951717         -107.53168
     14       2.00000          -3.949886         -107.48186
     15       2.00000          -3.949109         -107.46072
     16       2.00000          -2.544462          -69.23832
     17       2.00000          -2.543626          -69.21558
     18       2.00000          -2.543214          -69.20438
     19       2.00000          -2.542708          -69.19062
     20       2.00000          -2.541799          -69.16588
     21       2.00000          -2.541386          -69.15464
     22       2.00000          -2.541230          -69.15038
     23       2.00000          -2.540531          -69.13137
     24       2.00000          -2.539829          -69.11226
     25       2.00000          -1.190605          -32.39802
     26       2.00000          -1.179446          -32.09435
     27       2.00000          -1.178194          -32.06029
     28       2.00000          -1.169606          -31.82659
     29       2.00000          -1.162380          -31.62998
     30       2.00000          -1.149781          -31.28713
     31       2.00000          -1.148795          -31.26030
     32       2.00000          -1.145461          -31.16958
     33       2.00000          -1.143736          -31.12265
     34       2.00000          -0.560416          -15.24970
     35       2.00000          -0.555656          -15.12017
     36       2.00000          -0.544886          -14.82711
     37       2.00000          -0.522235          -14.21075
     38       2.00000          -0.522014          -14.20472
     39       2.00000          -0.510359          -13.88757
     40       2.00000          -0.505849          -13.76485
     41       2.00000          -0.502637          -13.67744
     42       2.00000          -0.497749          -13.54444
     43       2.00000          -0.494860          -13.46581
     44       2.00000          -0.489016          -13.30681
     45       2.00000          -0.485791          -13.21904
     46       2.00000          -0.478387          -13.01758
     47       2.00000          -0.472608          -12.86031
     48       2.00000          -0.471553          -12.83162
     49       2.00000          -0.467216          -12.71360
     50       2.00000          -0.464981          -12.65277
     51       2.00000          -0.460406          -12.52828
     52       2.00000          -0.453518          -12.34084
     53       2.00000          -0.452483          -12.31268
     54       2.00000          -0.451886          -12.29644
     55       2.00000          -0.451183          -12.27730
     56       2.00000          -0.448635          -12.20798
     57       2.00000          -0.447785          -12.18484
     58       2.00000          -0.444422          -12.09333
     59       2.00000          -0.442783          -12.04873
     60       2.00000          -0.439304          -11.95407
     61       0.00000          -0.144798           -3.94016
     62       0.00000          -0.091272           -2.48364
     63       0.00000          -0.073211           -1.99218
     64       0.00000          -0.034901           -0.94972
     65       0.00000          -0.020115           -0.54735
     66       0.00000          -0.001996           -0.05432
     67       0.00000           0.019431            0.52873
     68       0.00000           0.033517            0.91203
     69       0.00000           0.054743            1.48965
     70       0.00000           0.074323            2.02242
     71       0.00000           0.081885            2.22822
     72       0.00000           0.114067            3.10391
     73       0.00000           0.148027            4.02801
     74       0.00000           0.163354            4.44508
     75       0.00000           0.166591            4.53317
     76       0.00000           0.183207            4.98531
     77       0.00000           0.193106            5.25468
     78       0.00000           0.196107            5.33634
     79       0.00000           0.207753            5.65325
     80       0.00000           0.217860            5.92828
     81       0.00000           0.226495            6.16324
     82       0.00000           0.228822            6.22657
     83       0.00000           0.235213            6.40046
     84       0.00000           0.238339            6.48553
     85       0.00000           0.263157            7.16085
     86       0.00000           0.267113            7.26852
     87       0.00000           0.270234            7.35344
     88       0.00000           0.274014            7.45629
     89       0.00000           0.281449            7.65861
     90       0.00000           0.291840            7.94138
     91       0.00000           0.294595            8.01634
     92       0.00000           0.334860            9.11200
     93       0.00000           0.337562            9.18552
     94       0.00000           0.357971            9.74089
     95       0.00000           0.368774           10.03485
     96       0.00000           0.384431           10.46089

  Highest occupied state (VBM) at    -11.95406774 eV
  | Occupation number:      2.00000000

  Lowest unoccupied state (CBM) at    -3.94015787 eV
  | Occupation number:      0.00000000

  Overall HOMO-LUMO gap:      8.01390987 eV.
  Calculating total energy contributions from superposition of free atom densities.

  Total energy components:
  | Sum of eigenvalues            :        -887.66175162 Ha      -24154.50522930 eV
  | XC energy correction          :        -144.39237312 Ha       -3929.11638380 eV
  | XC potential correction       :         188.01038459 Ha        5116.02286499 eV
  | Free-atom electrostatic energy:        -781.30704240 Ha      -21260.44634340 eV
  | Hartree energy correction     :           0.00000000 Ha           0.00000000 eV
  | Entropy correction            :           0.00000000 Ha           0.00000000 eV
  | ---------------------------
  | Total energy                  :       -1625.35078256 Ha      -44228.04509151 eV
  | Total energy, T -> 0          :       -1625.35078256 Ha      -44228.04509151 eV  <-- do not rely on this value for anything but (periodic) metals
  | Electronic free energy        :       -1625.35078256 Ha      -44228.04509151 eV

  Derived energy quantities:
  | Kinetic energy                :        1627.73468222 Ha       44292.91430183 eV
  | Electrostatic energy          :       -3108.69309166 Ha      -84591.84300954 eV
  | Energy correction for multipole
  | error in Hartree potential    :           0.00000000 Ha           0.00000000 eV
  | Sum of eigenvalues per atom                           :       -2012.87543577 eV
  | Total energy (T->0) per atom                          :       -3685.67042429 eV  <-- do not rely on this value for anything but (periodic) metals
  | Electronic free energy per atom                       :       -3685.67042429 eV
  Initialize hartree_potential_storage
  Max. number of atoms included in rho_multipole:           12

  End scf initialization - timings             :  max(cpu_time)    wall_clock(cpu1)
  | Time for scf. initialization                :        0.120 s           0.120 s
  | Boundary condition initialization           :        0.000 s           0.000 s
  | Integration                                 :        0.047 s           0.047 s
  | Solution of K.-S. eqns.                     :        0.012 s           0.012 s
  | Grid partitioning                           :        0.038 s           0.039 s
  | Preloading free-atom quantities on grid     :        0.016 s           0.016 s
  | Free-atom superposition energy              :        0.005 s           0.005 s
  | Total energy evaluation                     :        0.000 s           0.000 s

  Partial memory accounting:
  | Current value for overall tracked memory usage:
  |   Minimum:        0.273 MB (on task 23)
  |   Maximum:        0.292 MB (on task  0)
  |   Average:        0.287 MB
  | Peak value for overall tracked memory usage:
  |   Minimum:        1.353 MB (on task 19 after allocating wave)
  |   Maximum:        1.433 MB (on task 16 after allocating wave)
  |   Average:        1.396 MB
  | Largest tracked array allocation so far:
  |   Minimum:        0.247 MB (H_times_psi on task 19)
  |   Maximum:        0.531 MB (all_coords on task 14)
  |   Average:        0.276 MB
  Note:  These values currently only include a subset of arrays which are explicitly tracked.
  The "true" memory usage will be greater.
------------------------------------------------------------
  Evaluating new KS density.
  Integration grid: deviation in total charge (<rho> - N_e) =   2.842171E-14

  Time for density update prior                :  max(cpu_time)    wall_clock(cpu1)
  | self-consistency iterative process          :        0.029 s           0.029 s

------------------------------------------------------------
          Begin self-consistency iteration #    1

  Date     :  20220517, Time     :  120732.166
------------------------------------------------------------
  Pulay mixing of updated and previous charge densities.
  Renormalizing the density to the exact electron count on the 3D integration grid.
  | Formal number of electrons (from input files) :     120.0000000000
  | Integrated number of electrons on 3D grid     :     120.0000000000
  | Charge integration error                      :       0.0000000000
  | Normalization factor for density and gradient :       1.0000000000

  Evaluating partitioned Hartree potential by multipole expansion.
  | Original multipole sum: apparent total charge =   0.731106E-13
  | Sum of charges compensated after spline to logarithmic grids =   0.937046E-04
  | Analytical far-field extrapolation by fixed multipoles:
  | Hartree multipole sum: apparent total charge =   0.717516E-13
  Summing up the Hartree potential.
  Time summed over all CPUs for potential: real work        0.381 s, elapsed        0.393 s
  | RMS charge density error from multipole expansion :   0.106562E-01

  Integrating Hamiltonian matrix: batch-based integration.
  Time summed over all CPUs for integration: real work        0.704 s, elapsed        0.734 s

  Updating Kohn-Sham eigenvalues and eigenvectors using ELSI and the ELPA eigensolver.
  Starting ELPA eigensolver
  Finished transformation to standard eigenproblem
  | Time :     0.004 s
  Finished solving standard eigenproblem
  | Time :     0.010 s
  Finished back-transformation of eigenvectors
  | Time :     0.002 s

  Obtaining occupation numbers and chemical potential using ELSI.
  | Chemical potential (Fermi level):    -7.53773094 eV
  Writing Kohn-Sham eigenvalues.

  State    Occupation    Eigenvalue [Ha]    Eigenvalue [eV]
      1       2.00000         -55.682232        -1515.19061
      2       2.00000         -55.659079        -1514.56059
      3       2.00000         -55.620964        -1513.52343
      4       2.00000         -24.247186         -659.79951
      5       2.00000         -24.234903         -659.46526
      6       2.00000         -24.219525         -659.04680
      7       2.00000         -24.194866         -658.37580
      8       2.00000         -24.186086         -658.13688
      9       2.00000         -24.094839         -655.65392
     10       2.00000         -24.063291         -654.79546
     11       2.00000         -24.042953         -654.24205
     12       2.00000         -24.030049         -653.89091
     13       2.00000          -4.120278         -112.11846
     14       2.00000          -4.097508         -111.49886
     15       2.00000          -4.059420         -110.46244
     16       2.00000          -2.713452          -73.83679
     17       2.00000          -2.712924          -73.82242
     18       2.00000          -2.712562          -73.81258
     19       2.00000          -2.691070          -73.22774
     20       2.00000          -2.690402          -73.20958
     21       2.00000          -2.689044          -73.17260
     22       2.00000          -2.653328          -72.20073
     23       2.00000          -2.652586          -72.18054
     24       2.00000          -2.650252          -72.11703
     25       2.00000          -1.167652          -31.77343
     26       2.00000          -1.156523          -31.47058
     27       2.00000          -1.138549          -30.98149
     28       2.00000          -1.124126          -30.58903
     29       2.00000          -1.104368          -30.05138
     30       2.00000          -1.039593          -28.28876
     31       2.00000          -1.008632          -27.44629
     32       2.00000          -0.992056          -26.99520
     33       2.00000          -0.980897          -26.69155
     34       2.00000          -0.559839          -15.23400
     35       2.00000          -0.546325          -14.86625
     36       2.00000          -0.523442          -14.24359
     37       2.00000          -0.497849          -13.54716
     38       2.00000          -0.495071          -13.47157
     39       2.00000          -0.477648          -12.99746
     40       2.00000          -0.475071          -12.92735
     41       2.00000          -0.469991          -12.78912
     42       2.00000          -0.455563          -12.39649
     43       2.00000          -0.447231          -12.16978
     44       2.00000          -0.438023          -11.91922
     45       2.00000          -0.426844          -11.61500
     46       2.00000          -0.412583          -11.22697
     47       2.00000          -0.410084          -11.15894
     48       2.00000          -0.402298          -10.94708
     49       2.00000          -0.388652          -10.57576
     50       2.00000          -0.373473          -10.16272
     51       2.00000          -0.364589           -9.92096
     52       2.00000          -0.349274           -9.50422
     53       2.00000          -0.348758           -9.49017
     54       2.00000          -0.330765           -9.00058
     55       2.00000          -0.319605           -8.69689
     56       2.00000          -0.317897           -8.65042
     57       2.00000          -0.306238           -8.33316
     58       2.00000          -0.302036           -8.21883
     59       2.00000          -0.289357           -7.87380
     60       2.00000          -0.282023           -7.67425
     61       0.00000          -0.166644           -4.53462
     62       0.00000          -0.107046           -2.91288
     63       0.00000          -0.071498           -1.94555
     64       0.00000          -0.061868           -1.68352
     65       0.00000          -0.052968           -1.44133
     66       0.00000          -0.024594           -0.66924
     67       0.00000           0.018577            0.50552
     68       0.00000           0.025810            0.70233
     69       0.00000           0.044568            1.21276
     70       0.00000           0.067292            1.83111
     71       0.00000           0.085569            2.32845
     72       0.00000           0.098708            2.68597
     73       0.00000           0.137705            3.74715
     74       0.00000           0.152044            4.13734
     75       0.00000           0.158656            4.31724
     76       0.00000           0.173665            4.72566
     77       0.00000           0.179192            4.87607
     78       0.00000           0.191709            5.21666
     79       0.00000           0.198262            5.39498
     80       0.00000           0.214199            5.82866
     81       0.00000           0.216381            5.88801
     82       0.00000           0.226168            6.15434
     83       0.00000           0.229513            6.24536
     84       0.00000           0.230552            6.27364
     85       0.00000           0.249187            6.78072
     86       0.00000           0.255285            6.94665
     87       0.00000           0.257853            7.01652
     88       0.00000           0.261102            7.10496
     89       0.00000           0.279750            7.61238
     90       0.00000           0.285417            7.76659
     91       0.00000           0.291548            7.93342
     92       0.00000           0.340312            9.26037
     93       0.00000           0.349229            9.50301
     94       0.00000           0.364584            9.92083
     95       0.00000           0.378998           10.31306
     96       0.00000           0.379972           10.33958

  Highest occupied state (VBM) at     -7.67424649 eV
  | Occupation number:      2.00000000

  Lowest unoccupied state (CBM) at    -4.53461799 eV
  | Occupation number:      0.00000000

  Overall HOMO-LUMO gap:      3.13962850 eV.

  Total energy components:
  | Sum of eigenvalues            :        -882.88344523 Ha      -24024.48089677 eV
  | XC energy correction          :        -145.67778120 Ha       -3964.09411730 eV
  | XC potential correction       :         189.69990478 Ha        5161.99704845 eV
  | Free-atom electrostatic energy:        -781.30704240 Ha      -21260.44634340 eV
  | Hartree energy correction     :          -4.96430589 Ha        -135.08563648 eV
  | Entropy correction            :          -0.00000000 Ha          -0.00000000 eV
  | ---------------------------
  | Total energy                  :       -1625.13266995 Ha      -44222.10994550 eV
  | Total energy, T -> 0          :       -1625.13266995 Ha      -44222.10994550 eV  <-- do not rely on this value for anything but (periodic) metals
  | Electronic free energy        :       -1625.13266995 Ha      -44222.10994550 eV

  Derived energy quantities:
  | Kinetic energy                :        1633.84537782 Ha       44459.19478950 eV
  | Electrostatic energy          :       -3113.30026657 Ha      -84717.21061771 eV
  | Energy correction for multipole
  | error in Hartree potential    :           0.03247727 Ha           0.88375138 eV
  | Sum of eigenvalues per atom                           :       -2002.04007473 eV
  | Total energy (T->0) per atom                          :       -3685.17582879 eV  <-- do not rely on this value for anything but (periodic) metals
  | Electronic free energy per atom                       :       -3685.17582879 eV
  Evaluating new KS density.
  Integration grid: deviation in total charge (<rho> - N_e) =   0.000000E+00

  Self-consistency convergence accuracy:
  | Change of charge density      :  0.5906E+00
  | Change of sum of eigenvalues  :  0.1300E+03 eV
  | Change of total energy        :  0.5935E+01 eV


------------------------------------------------------------
  End self-consistency iteration #     1       :  max(cpu_time)    wall_clock(cpu1)
  | Time for this iteration                     :        0.098 s           0.098 s
  | Charge density update                       :        0.028 s           0.028 s
  | Density mixing                              :        0.001 s           0.001 s
  | Hartree multipole update                    :        0.001 s           0.001 s
  | Hartree multipole summation                 :        0.017 s           0.017 s
  | Integration                                 :        0.032 s           0.032 s
  | Solution of K.-S. eqns.                     :        0.017 s           0.017 s
  | Total energy evaluation                     :        0.001 s           0.000 s

  Partial memory accounting:
  | Current value for overall tracked memory usage:
  |   Minimum:        0.273 MB (on task 23)
  |   Maximum:        0.292 MB (on task  0)
  |   Average:        0.287 MB
  | Peak value for overall tracked memory usage:
  |   Minimum:        1.353 MB (on task 19 after allocating wave)
  |   Maximum:        1.433 MB (on task 16 after allocating wave)
  |   Average:        1.396 MB
  | Largest tracked array allocation so far:
  |   Minimum:        0.742 MB (gradient_basis_wave on task 19)
  |   Maximum:        0.787 MB (gradient_basis_wave on task 16)
  |   Average:        0.767 MB
  Note:  These values currently only include a subset of arrays which are explicitly tracked.
  The "true" memory usage will be greater.
------------------------------------------------------------

------------------------------------------------------------
          Begin self-consistency iteration #    2

  Date     :  20220517, Time     :  120732.271
------------------------------------------------------------
  Pulay mixing of updated and previous charge densities.
  Renormalizing the density to the exact electron count on the 3D integration grid.
  | Formal number of electrons (from input files) :     120.0000000000
  | Integrated number of electrons on 3D grid     :     120.0000000000
  | Charge integration error                      :      -0.0000000000
  | Normalization factor for density and gradient :       1.0000000000

  Evaluating partitioned Hartree potential by multipole expansion.
  | Original multipole sum: apparent total charge =   0.476520E-13
  | Sum of charges compensated after spline to logarithmic grids =   0.559769E-04
  | Analytical far-field extrapolation by fixed multipoles:
  | Hartree multipole sum: apparent total charge =   0.470432E-13
  Summing up the Hartree potential.
  Time summed over all CPUs for potential: real work        0.380 s, elapsed        0.392 s
  | RMS charge density error from multipole expansion :   0.124239E-01

  Integrating Hamiltonian matrix: batch-based integration.
  Time summed over all CPUs for integration: real work        0.704 s, elapsed        0.733 s

  Updating Kohn-Sham eigenvalues and eigenvectors using ELSI and the ELPA eigensolver.
  Starting ELPA eigensolver
  Finished transformation to standard eigenproblem
  | Time :     0.004 s
  Finished solving standard eigenproblem
  | Time :     0.003 s
  Finished back-transformation of eigenvectors
  | Time :     0.000 s

  Obtaining occupation numbers and chemical potential using ELSI.
  | Chemical potential (Fermi level):    -7.74558938 eV
  Highest occupied state (VBM) at     -8.68155581 eV
  | Occupation number:      2.00000000

  Lowest unoccupied state (CBM) at    -4.77637471 eV
  | Occupation number:      0.00000000

  Overall HOMO-LUMO gap:      3.90518111 eV.

  Checking to see if s.c.f. parameters should be adjusted.

  Total energy components:
  | Sum of eigenvalues            :        -885.76519547 Ha      -24102.89731059 eV
  | XC energy correction          :        -145.20497698 Ha       -3951.22846003 eV
  | XC potential correction       :         189.07790318 Ha        5145.07152393 eV
  | Free-atom electrostatic energy:        -781.30704240 Ha      -21260.44634340 eV
  | Hartree energy correction     :          -1.87351887 Ha         -50.98104240 eV
  | Entropy correction            :           0.00000000 Ha           0.00000000 eV
  | ---------------------------
  | Total energy                  :       -1625.07283055 Ha      -44220.48163249 eV
  | Total energy, T -> 0          :       -1625.07283055 Ha      -44220.48163249 eV  <-- do not rely on this value for anything but (periodic) metals
  | Electronic free energy        :       -1625.07283055 Ha      -44220.48163249 eV

  Derived energy quantities:
  | Kinetic energy                :        1630.07126055 Ha       44356.49583322 eV
  | Electrostatic energy          :       -3109.93911411 Ha      -84625.74900569 eV
  | Energy correction for multipole
  | error in Hartree potential    :           0.03623056 Ha           0.98588379 eV
  | Sum of eigenvalues per atom                           :       -2008.57477588 eV
  | Total energy (T->0) per atom                          :       -3685.04013604 eV  <-- do not rely on this value for anything but (periodic) metals
  | Electronic free energy per atom                       :       -3685.04013604 eV
  Evaluating new KS density.
  Integration grid: deviation in total charge (<rho> - N_e) =  -1.421085E-14

  Self-consistency convergence accuracy:
  | Change of charge density      :  0.4594E+00
  | Change of sum of eigenvalues  : -0.7842E+02 eV
  | Change of total energy        :  0.1628E+01 eV


------------------------------------------------------------
  End self-consistency iteration #     2       :  max(cpu_time)    wall_clock(cpu1)
  | Time for this iteration                     :        0.099 s           0.096 s
  | Charge density update                       :        0.028 s           0.028 s
  | Density mixing                              :        0.005 s           0.002 s
  | Hartree multipole update                    :        0.007 s           0.007 s
  | Hartree multipole summation                 :        0.018 s           0.018 s
  | Integration                                 :        0.032 s           0.032 s
  | Solution of K.-S. eqns.                     :        0.007 s           0.007 s
  | Total energy evaluation                     :        0.000 s           0.001 s

  Partial memory accounting:
  | Current value for overall tracked memory usage:
  |   Minimum:        0.274 MB (on task 23)
  |   Maximum:        0.293 MB (on task  0)
  |   Average:        0.288 MB
  | Peak value for overall tracked memory usage:
  |   Minimum:        1.353 MB (on task 19 after allocating wave)
  |   Maximum:        1.433 MB (on task 16 after allocating wave)
  |   Average:        1.396 MB
  | Largest tracked array allocation so far:
  |   Minimum:        0.742 MB (gradient_basis_wave on task 19)
  |   Maximum:        0.787 MB (gradient_basis_wave on task 16)
  |   Average:        0.767 MB
  Note:  These values currently only include a subset of arrays which are explicitly tracked.
  The "true" memory usage will be greater.
------------------------------------------------------------

------------------------------------------------------------
          Begin self-consistency iteration #    3

  Date     :  20220517, Time     :  120732.373
------------------------------------------------------------
  Pulay mixing of updated and previous charge densities.
  Renormalizing the density to the exact electron count on the 3D integration grid.
  | Formal number of electrons (from input files) :     120.0000000000
  | Integrated number of electrons on 3D grid     :     120.0000000000
  | Charge integration error                      :      -0.0000000000
  | Normalization factor for density and gradient :       1.0000000000

  Evaluating partitioned Hartree potential by multipole expansion.
  | Original multipole sum: apparent total charge =   0.483192E-13
  | Sum of charges compensated after spline to logarithmic grids =   0.696076E-04
  | Analytical far-field extrapolation by fixed multipoles:
  | Hartree multipole sum: apparent total charge =   0.498658E-13
  Summing up the Hartree potential.
  Time summed over all CPUs for potential: real work        0.379 s, elapsed        0.391 s
  | RMS charge density error from multipole expansion :   0.168211E-01

  Integrating Hamiltonian matrix: batch-based integration.
  Time summed over all CPUs for integration: real work        0.702 s, elapsed        0.728 s

  Updating Kohn-Sham eigenvalues and eigenvectors using ELSI and the ELPA eigensolver.
  Starting ELPA eigensolver
  Finished transformation to standard eigenproblem
  | Time :     0.000 s
  Finished solving standard eigenproblem
  | Time :     0.004 s
  Finished back-transformation of eigenvectors
  | Time :     0.000 s

  Obtaining occupation numbers and chemical potential using ELSI.
  | Chemical potential (Fermi level):    -7.76960973 eV
  Highest occupied state (VBM) at     -8.34270166 eV
  | Occupation number:      2.00000000

  Lowest unoccupied state (CBM) at    -5.01296359 eV
  | Occupation number:      0.00000000

  Overall HOMO-LUMO gap:      3.32973807 eV.

  Total energy components:
  | Sum of eigenvalues            :        -886.69909327 Ha      -24128.30996283 eV
  | XC energy correction          :        -145.16932532 Ha       -3950.25832899 eV
  | XC potential correction       :         189.02989495 Ha        5143.76515357 eV
  | Free-atom electrostatic energy:        -781.30704240 Ha      -21260.44634340 eV
  | Hartree energy correction     :          -0.92611940 Ha         -25.20099097 eV
  | Entropy correction            :           0.00000000 Ha           0.00000000 eV
  | ---------------------------
  | Total energy                  :       -1625.07168544 Ha      -44220.45047262 eV
  | Total energy, T -> 0          :       -1625.07168544 Ha      -44220.45047262 eV  <-- do not rely on this value for anything but (periodic) metals
  | Electronic free energy        :       -1625.07168544 Ha      -44220.45047262 eV

  Derived energy quantities:
  | Kinetic energy                :        1628.43030168 Ha       44311.84307045 eV
  | Electrostatic energy          :       -3108.33266180 Ha      -84582.03521409 eV
  | Energy correction for multipole
  | error in Hartree potential    :           0.04851598 Ha           1.32018692 eV
  | Sum of eigenvalues per atom                           :       -2010.69249690 eV
  | Total energy (T->0) per atom                          :       -3685.03753939 eV  <-- do not rely on this value for anything but (periodic) metals
  | Electronic free energy per atom                       :       -3685.03753939 eV
  Evaluating new KS density.
  Integration grid: deviation in total charge (<rho> - N_e) =   4.263256E-14

  Self-consistency convergence accuracy:
  | Change of charge density      :  0.1243E+00
  | Change of sum of eigenvalues  : -0.2541E+02 eV
  | Change of total energy        :  0.3116E-01 eV


------------------------------------------------------------
  End self-consistency iteration #     3       :  max(cpu_time)    wall_clock(cpu1)
  | Time for this iteration                     :        0.085 s           0.082 s
  | Charge density update                       :        0.028 s           0.028 s
  | Density mixing                              :        0.004 s           0.001 s
  | Hartree multipole update                    :        0.001 s           0.002 s
  | Hartree multipole summation                 :        0.017 s           0.016 s
  | Integration                                 :        0.031 s           0.031 s
  | Solution of K.-S. eqns.                     :        0.004 s           0.004 s
  | Total energy evaluation                     :        0.000 s           0.000 s

  Partial memory accounting:
  | Current value for overall tracked memory usage:
  |   Minimum:        0.274 MB (on task 23)
  |   Maximum:        0.293 MB (on task  0)
  |   Average:        0.288 MB
  | Peak value for overall tracked memory usage:
  |   Minimum:        1.353 MB (on task 19 after allocating wave)
  |   Maximum:        1.433 MB (on task 16 after allocating wave)
  |   Average:        1.396 MB
  | Largest tracked array allocation so far:
  |   Minimum:        0.742 MB (gradient_basis_wave on task 19)
  |   Maximum:        0.787 MB (gradient_basis_wave on task 16)
  |   Average:        0.767 MB
  Note:  These values currently only include a subset of arrays which are explicitly tracked.
  The "true" memory usage will be greater.
------------------------------------------------------------

------------------------------------------------------------
          Begin self-consistency iteration #    4

  Date     :  20220517, Time     :  120732.462
------------------------------------------------------------
  Pulay mixing of updated and previous charge densities.
  Renormalizing the density to the exact electron count on the 3D integration grid.
  | Formal number of electrons (from input files) :     120.0000000000
  | Integrated number of electrons on 3D grid     :     120.0000000000
  | Charge integration error                      :      -0.0000000000
  | Normalization factor for density and gradient :       1.0000000000

  Evaluating partitioned Hartree potential by multipole expansion.
  | Original multipole sum: apparent total charge =  -0.289331E-14
  | Sum of charges compensated after spline to logarithmic grids =   0.752822E-04
  | Analytical far-field extrapolation by fixed multipoles:
  | Hartree multipole sum: apparent total charge =  -0.279492E-14
  Summing up the Hartree potential.
  Time summed over all CPUs for potential: real work        0.379 s, elapsed        0.391 s
  | RMS charge density error from multipole expansion :   0.189129E-01

  Integrating Hamiltonian matrix: batch-based integration.
  Time summed over all CPUs for integration: real work        0.703 s, elapsed        0.728 s

  Updating Kohn-Sham eigenvalues and eigenvectors using ELSI and the ELPA eigensolver.
  Starting ELPA eigensolver
  Finished transformation to standard eigenproblem
  | Time :     0.000 s
  Finished solving standard eigenproblem
  | Time :     0.003 s
  Finished back-transformation of eigenvectors
  | Time :     0.000 s

  Obtaining occupation numbers and chemical potential using ELSI.
  | Chemical potential (Fermi level):    -7.74517497 eV
  Highest occupied state (VBM) at     -8.30150425 eV
  | Occupation number:      2.00000000

  Lowest unoccupied state (CBM) at    -5.00837795 eV
  | Occupation number:      0.00000000

  Overall HOMO-LUMO gap:      3.29312630 eV.

  Total energy components:
  | Sum of eigenvalues            :        -886.83301014 Ha      -24131.95402612 eV
  | XC energy correction          :        -145.15227494 Ha       -3949.79436447 eV
  | XC potential correction       :         189.00681100 Ha        5143.13700729 eV
  | Free-atom electrostatic energy:        -781.30704240 Ha      -21260.44634340 eV
  | Hartree energy correction     :          -0.78394427 Ha         -21.33220899 eV
  | Entropy correction            :           0.00000000 Ha           0.00000000 eV
  | ---------------------------
  | Total energy                  :       -1625.06946075 Ha      -44220.38993568 eV
  | Total energy, T -> 0          :       -1625.06946075 Ha      -44220.38993568 eV  <-- do not rely on this value for anything but (periodic) metals
  | Electronic free energy        :       -1625.06946075 Ha      -44220.38993568 eV

  Derived energy quantities:
  | Kinetic energy                :        1627.73467918 Ha       44292.91421917 eV
  | Electrostatic energy          :       -3107.65186499 Ha      -84563.50979039 eV
  | Energy correction for multipole
  | error in Hartree potential    :           0.05386891 Ha           1.46584764 eV
  | Sum of eigenvalues per atom                           :       -2010.99616884 eV
  | Total energy (T->0) per atom                          :       -3685.03249464 eV  <-- do not rely on this value for anything but (periodic) metals
  | Electronic free energy per atom                       :       -3685.03249464 eV
  Evaluating new KS density.
  Integration grid: deviation in total charge (<rho> - N_e) =   1.421085E-14

  Self-consistency convergence accuracy:
  | Change of charge density      :  0.8469E-01
  | Change of sum of eigenvalues  : -0.3644E+01 eV
  | Change of total energy        :  0.6054E-01 eV


------------------------------------------------------------
  End self-consistency iteration #     4       :  max(cpu_time)    wall_clock(cpu1)
  | Time for this iteration                     :        0.085 s           0.082 s
  | Charge density update                       :        0.028 s           0.028 s
  | Density mixing                              :        0.004 s           0.001 s
  | Hartree multipole update                    :        0.001 s           0.001 s
  | Hartree multipole summation                 :        0.017 s           0.017 s
  | Integration                                 :        0.031 s           0.031 s
  | Solution of K.-S. eqns.                     :        0.004 s           0.004 s
  | Total energy evaluation                     :        0.000 s           0.000 s

  Partial memory accounting:
  | Current value for overall tracked memory usage:
  |   Minimum:        0.274 MB (on task 23)
  |   Maximum:        0.293 MB (on task  0)
  |   Average:        0.288 MB
  | Peak value for overall tracked memory usage:
  |   Minimum:        1.353 MB (on task 19 after allocating wave)
  |   Maximum:        1.433 MB (on task 16 after allocating wave)
  |   Average:        1.396 MB
  | Largest tracked array allocation so far:
  |   Minimum:        0.742 MB (gradient_basis_wave on task 19)
  |   Maximum:        0.787 MB (gradient_basis_wave on task 16)
  |   Average:        0.767 MB
  Note:  These values currently only include a subset of arrays which are explicitly tracked.
  The "true" memory usage will be greater.
------------------------------------------------------------

------------------------------------------------------------
          Begin self-consistency iteration #    5

  Date     :  20220517, Time     :  120732.550
------------------------------------------------------------
  Pulay mixing of updated and previous charge densities.
  Renormalizing the density to the exact electron count on the 3D integration grid.
  | Formal number of electrons (from input files) :     120.0000000000
  | Integrated number of electrons on 3D grid     :     120.0000000000
  | Charge integration error                      :       0.0000000000
  | Normalization factor for density and gradient :       1.0000000000

  Evaluating partitioned Hartree potential by multipole expansion.
  | Original multipole sum: apparent total charge =   0.851850E-13
  | Sum of charges compensated after spline to logarithmic grids =   0.760232E-04
  | Analytical far-field extrapolation by fixed multipoles:
  | Hartree multipole sum: apparent total charge =   0.863012E-13
  Summing up the Hartree potential.
  Time summed over all CPUs for potential: real work        0.379 s, elapsed        0.391 s
  | RMS charge density error from multipole expansion :   0.187350E-01

  Integrating Hamiltonian matrix: batch-based integration.
  Time summed over all CPUs for integration: real work        0.702 s, elapsed        0.727 s

  Updating Kohn-Sham eigenvalues and eigenvectors using ELSI and the ELPA eigensolver.
  Starting ELPA eigensolver
  Finished transformation to standard eigenproblem
  | Time :     0.000 s
  Finished solving standard eigenproblem
  | Time :     0.003 s
  Finished back-transformation of eigenvectors
  | Time :     0.000 s

  Obtaining occupation numbers and chemical potential using ELSI.
  | Chemical potential (Fermi level):    -7.73235011 eV
  Highest occupied state (VBM) at     -8.39230074 eV
  | Occupation number:      2.00000000

  Lowest unoccupied state (CBM) at    -4.94149834 eV
  | Occupation number:      0.00000000

  Overall HOMO-LUMO gap:      3.45080240 eV.

  Total energy components:
  | Sum of eigenvalues            :        -886.64154632 Ha      -24126.74403062 eV
  | XC energy correction          :        -145.14952051 Ha       -3949.71941246 eV
  | XC potential correction       :         189.00335512 Ha        5143.04296804 eV
  | Free-atom electrostatic energy:        -781.30704240 Ha      -21260.44634340 eV
  | Hartree energy correction     :          -0.97457197 Ha         -26.51945267 eV
  | Entropy correction            :           0.00000000 Ha           0.00000000 eV
[...]
   Total forces(   7)            : -0.285815E+00  0.240269E+01 -0.295281E+00
  atom #    8
   Hellmann-Feynman              :  0.573281E+00 -0.907618E+00 -0.183629E+00
   Ionic forces                  :  0.000000E+00  0.000000E+00  0.000000E+00
   Multipole                     :  0.309484E+00 -0.247209E+00 -0.322827E+00
   Hartree pot. SCF incomplete   :  0.518341E-05 -0.316393E-05 -0.486616E-05
   Pulay + GGA                   : -0.254782E+01  0.247741E+01  0.962838E+00
   ----------------------------------------------------------------
   Total forces(   8)            : -0.166505E+01  0.132258E+01  0.456377E+00
  atom #    9
   Hellmann-Feynman              : -0.365311E+00  0.524116E+00 -0.322557E+01
   Ionic forces                  :  0.000000E+00  0.000000E+00  0.000000E+00
   Multipole                     :  0.278614E-01  0.360796E-01 -0.906308E+00
   Hartree pot. SCF incomplete   : -0.117502E-05 -0.170753E-06 -0.253152E-05
   Pulay + GGA                   :  0.546746E+00 -0.964375E+00  0.767635E+01
   ----------------------------------------------------------------
   Total forces(   9)            :  0.209295E+00 -0.404180E+00  0.354446E+01
  atom #   10
   Hellmann-Feynman              : -0.134730E+00  0.639186E+00  0.913883E+00
   Ionic forces                  :  0.000000E+00  0.000000E+00  0.000000E+00
   Multipole                     :  0.984592E-01  0.437478E+00  0.308278E+00
   Hartree pot. SCF incomplete   : -0.880910E-06  0.814187E-05 -0.101141E-05
   Pulay + GGA                   :  0.715704E-02 -0.339480E+01 -0.250819E+01
   ----------------------------------------------------------------
   Total forces(  10)            : -0.291147E-01 -0.231813E+01 -0.128603E+01
  atom #   11
   Hellmann-Feynman              :  0.255898E+01  0.114710E+01  0.160905E+01
   Ionic forces                  :  0.000000E+00  0.000000E+00  0.000000E+00
   Multipole                     :  0.534667E+00  0.347370E+00  0.414935E+00
   Hartree pot. SCF incomplete   :  0.245441E-05  0.124684E-05  0.248469E-05
   Pulay + GGA                   : -0.569844E+01 -0.287596E+01 -0.407766E+01
   ----------------------------------------------------------------
   Total forces(  11)            : -0.260479E+01 -0.138149E+01 -0.205367E+01
  atom #   12
   Hellmann-Feynman              :  0.234857E-01 -0.381105E+00  0.303429E+00
   Ionic forces                  :  0.000000E+00  0.000000E+00  0.000000E+00
   Multipole                     : -0.317472E+00 -0.407706E+00  0.172530E+00
   Hartree pot. SCF incomplete   : -0.497409E-05 -0.170420E-05 -0.251408E-05
   Pulay + GGA                   :  0.169185E+01  0.181923E+01 -0.806323E+00
   ----------------------------------------------------------------
   Total forces(  12)            :  0.139786E+01  0.103041E+01 -0.330366E+00


  Self-consistency convergence accuracy:
  | Change of charge density      :  0.2063E-06
  | Change of sum of eigenvalues  :  0.7307E-05 eV
  | Change of total energy        :  0.2438E-08 eV
  | Change of forces              :  0.3741E-06 eV/A

  Writing Kohn-Sham eigenvalues.

  State    Occupation    Eigenvalue [Ha]    Eigenvalue [eV]
      1       2.00000         -55.674515        -1514.98064
      2       2.00000         -55.639827        -1514.03672
      3       2.00000         -55.595425        -1512.82849
      4       2.00000         -24.316627         -661.68908
      5       2.00000         -24.315808         -661.66680
      6       2.00000         -24.310017         -661.50923
      7       2.00000         -24.272014         -660.47510
      8       2.00000         -24.271148         -660.45155
      9       2.00000         -24.250693         -659.89492
     10       2.00000         -24.207524         -658.72025
     11       2.00000         -24.173251         -657.78764
     12       2.00000         -24.160783         -657.44835
     13       2.00000          -4.126412         -112.28538
     14       2.00000          -4.091426         -111.33338
     15       2.00000          -4.046398         -110.10810
     16       2.00000          -2.719680          -74.00625
     17       2.00000          -2.718417          -73.97189
     18       2.00000          -2.715947          -73.90467
     19       2.00000          -2.684256          -73.04233
     20       2.00000          -2.683198          -73.01354
     21       2.00000          -2.681536          -72.96831
     22       2.00000          -2.641174          -71.87000
     23       2.00000          -2.637880          -71.78038
     24       2.00000          -2.634707          -71.69402
     25       2.00000          -1.190989          -32.40846
     26       2.00000          -1.179863          -32.10569
     27       2.00000          -1.168047          -31.78417
     28       2.00000          -1.142926          -31.10059
     29       2.00000          -1.124998          -30.61274
     30       2.00000          -1.097161          -29.85528
     31       2.00000          -1.051360          -28.60896
     32       2.00000          -1.020781          -27.77686
     33       2.00000          -1.007020          -27.40240
     34       2.00000          -0.579814          -15.77754
     35       2.00000          -0.564394          -15.35794
     36       2.00000          -0.544648          -14.82062
     37       2.00000          -0.520773          -14.17096
     38       2.00000          -0.518989          -14.12242
     39       2.00000          -0.499126          -13.58190
     40       2.00000          -0.494000          -13.44243
     41       2.00000          -0.491336          -13.36993
     42       2.00000          -0.476901          -12.97714
     43       2.00000          -0.471343          -12.82589
     44       2.00000          -0.463388          -12.60942
     45       2.00000          -0.457187          -12.44070
     46       2.00000          -0.452112          -12.30258
     47       2.00000          -0.433191          -11.78773
     48       2.00000          -0.430573          -11.71650
     49       2.00000          -0.410404          -11.16765
     50       2.00000          -0.409828          -11.15198
     51       2.00000          -0.402407          -10.95006
     52       2.00000          -0.401814          -10.93392
     53       2.00000          -0.388384          -10.56848
     54       2.00000          -0.358970           -9.76808
     55       2.00000          -0.358458           -9.75413
     56       2.00000          -0.354873           -9.65658
     57       2.00000          -0.331742           -9.02715
     58       2.00000          -0.326180           -8.87581
     59       2.00000          -0.314180           -8.54928
     60       2.00000          -0.307306           -8.36223
     61       0.00000          -0.181689           -4.94401
     62       0.00000          -0.119862           -3.26162
     63       0.00000          -0.079802           -2.17153
     64       0.00000          -0.064816           -1.76373
     65       0.00000          -0.062261           -1.69421
     66       0.00000          -0.032260           -0.87784
     67       0.00000           0.014163            0.38541
     68       0.00000           0.023333            0.63492
     69       0.00000           0.041232            1.12198
     70       0.00000           0.065137            1.77247
     71       0.00000           0.082482            2.24445
     72       0.00000           0.097106            2.64240
     73       0.00000           0.128266            3.49031
     74       0.00000           0.144623            3.93540
     75       0.00000           0.150231            4.08799
     76       0.00000           0.165927            4.51511
     77       0.00000           0.175849            4.78511
     78       0.00000           0.185374            5.04427
     79       0.00000           0.197128            5.36414
     80       0.00000           0.208044            5.66117
     81       0.00000           0.213430            5.80773
     82       0.00000           0.222747            6.06125
     83       0.00000           0.223768            6.08902
     84       0.00000           0.227333            6.18604
     85       0.00000           0.245488            6.68007
     86       0.00000           0.249901            6.80014
     87       0.00000           0.252305            6.86556
     88       0.00000           0.253860            6.90787
     89       0.00000           0.279602            7.60835
     90       0.00000           0.284302            7.73624
     91       0.00000           0.286324            7.79126
     92       0.00000           0.337524            9.18450
     93       0.00000           0.342194            9.31157
     94       0.00000           0.356846            9.71027
     95       0.00000           0.366212            9.96514
     96       0.00000           0.372741           10.14280

  Highest occupied state (VBM) at     -8.36223449 eV
  | Occupation number:      2.00000000

  Lowest unoccupied state (CBM) at    -4.94401146 eV
  | Occupation number:      0.00000000

  Overall HOMO-LUMO gap:      3.41822303 eV.
  | Chemical Potential                          :    -7.72974417 eV

  Self-consistency cycle converged.


------------------------------------------------------------
  End self-consistency iteration #    14       :  max(cpu_time)    wall_clock(cpu1)
  | Time for this iteration                     :        0.275 s           0.273 s
  | Charge density & force component update     :        0.152 s           0.153 s
  | Density mixing                              :        0.005 s           0.002 s
  | Hartree multipole update                    :        0.001 s           0.001 s
  | Hartree multipole summation                 :        0.048 s           0.048 s
  | Hartree pot. SCF incomplete forces          :        0.032 s           0.032 s
  | Integration                                 :        0.031 s           0.031 s
  | Solution of K.-S. eqns.                     :        0.004 s           0.004 s
  | Total energy evaluation                     :        0.000 s           0.000 s

  Partial memory accounting:
  | Current value for overall tracked memory usage:
  |   Minimum:        0.274 MB (on task 23)
  |   Maximum:        0.293 MB (on task  0)
  |   Average:        0.289 MB
  | Peak value for overall tracked memory usage:
  |   Minimum:        3.031 MB (on task 19 after allocating hessian_basis_wave)
  |   Maximum:        3.192 MB (on task 16 after allocating hessian_basis_wave)
  |   Average:        3.118 MB
  | Largest tracked array allocation so far:
  |   Minimum:        1.483 MB (hessian_basis_wave on task 19)
  |   Maximum:        1.575 MB (hessian_basis_wave on task 16)
  |   Average:        1.533 MB
  Note:  These values currently only include a subset of arrays which are explicitly tracked.
  The "true" memory usage will be greater.
------------------------------------------------------------
  Removing unitary transformations (pure translations, rotations) from forces on atoms.
  Atomic forces before filtering:
  | Net force on center of mass :  -0.555422E-02  0.368525E-02  0.109963E-01 eV/A
  | Net torque on center of mass:  -0.486324E-02  0.311248E-02  0.448023E-03 eV
  Atomic forces after filtering:
  | Net force on center of mass :   0.178406E-15  0.178406E-15 -0.120424E-14 eV/A
  | Net torque on center of mass:   0.377634E-15 -0.708063E-15  0.198258E-14 eV

  Energy and forces in a compact form:
  | Total energy uncorrected      :         -0.442203859107513E+05 eV
  | Total energy corrected        :         -0.442203859107513E+05 eV  <-- do not rely on this value for anything but (periodic) metals
  | Electronic free energy        :         -0.442203859107513E+05 eV
  Total atomic forces (unitary forces cleaned) [eV/Ang]:
  |    1         -0.325199450377942E+01         -0.829608893655352E+00          0.129947989234001E+01
  |    2          0.249272226304906E+01          0.973532180651377E+00          0.301503428698017E+01
  |    3          0.237619952439017E-01          0.189426973379118E+00         -0.225600921629868E+01
  |    4          0.651213791264534E+00         -0.180141029501178E+01         -0.105971936774700E+01
  |    5          0.211363697430855E+01         -0.185226677259750E+01         -0.113712999352461E+00
  |    6          0.945315016009369E+00          0.266991939828685E+01         -0.915356731843056E+00
  |    7         -0.285407117511010E+00          0.240228749165248E+01         -0.296327665581553E+00
  |    8         -0.166454257820650E+01          0.132238439582342E+01          0.455490744936894E+00
  |    9          0.209920089295757E+00         -0.404105030976104E+00          0.354362197157521E+01
  |   10         -0.286058102515839E-01         -0.231838901303553E+01         -0.128673960084601E+01
  |   11         -0.260437264036296E+01         -0.138198891417709E+01         -0.205437173858137E+01
  |   12          0.139835252094029E+01          0.103021847966012E+01         -0.331389575582146E+00

  ------------------------------------ 
  Start decomposition of the XC Energy 
  ------------------------------------ 
  X and C from original XC functional choice 
  Hartree-Fock Energy :          0.000000000 Ha              0.000000000 eV
  X Energy            :       -140.198386633 Ha          -3814.992204948 eV
  C Energy            :         -4.955030674 Ha           -134.833244874 eV
  Total XC Energy     :       -145.153417307 Ha          -3949.825449822 eV
  ------------------------------------ 
  LDA X and C from self-consistent density 
  X Energy LDA        :       -132.786055591 Ha          -3613.292414928 eV
  C Energy LDA        :         -8.827181223 Ha           -240.199822317 eV
  ------------------------------------ 
  End decomposition of the XC Energy 
  ------------------------------------ 

------------------------------------------------------------

------------------------------------------------------------------------------
  Final output of selected total energy values:

  The following output summarizes some interesting total energy values
  at the end of a run (AFTER all relaxation, molecular dynamics, etc.).

  | Total energy of the DFT / Hartree-Fock s.c.f. calculation      :         -44220.385910751 eV
  | Final zero-broadening corrected energy (caution - metals only) :         -44220.385910751 eV
  | For reference only, the value of 1 Hartree used in FHI-aims is :             27.211384500 eV

  Before relying on these values, please be sure to understand exactly which
  total energy value is referred to by a given number. Different objects may
  all carry the same name 'total energy'. Definitions:

  Total energy of the DFT / Hartree-Fock s.c.f. calculation:
  | Note that this energy does not include ANY quantities calculated after the
  | s.c.f. cycle, in particular not ANY RPA, MP2, etc. many-body perturbation terms.

  Final zero-broadening corrected energy:
  | For metallic systems only, a broadening of the occupation numbers at the Fermi
  | level can be extrapolated back to zero broadening by an electron-gas inspired
  | formula. For all systems that are not real metals, this value can be
  | meaningless and should be avoided.

------------------------------------------------------------------------------
  Methods described in the following list of references were used in this FHI-aims run.
  If you publish the results, please make sure to cite these reference if they apply.
  FHI-aims is an academic code, and for our developers (often, Ph.D. students
  and postdocs), scientific credit in the community is essential.
  Thank you for helping us!

  For any use of FHI-aims, please cite:

    Volker Blum, Ralf Gehrke, Felix Hanke, Paula Havu, Ville Havu,
    Xinguo Ren, Karsten Reuter, and Matthias Scheffler
    'Ab initio molecular simulations with numeric atom-centered orbitals'
    Computer Physics Communications 180, 2175-2196 (2009)
    http://dx.doi.org/10.1016/j.cpc.2009.06.022


  The ELSI infrastructure was used in your run to solve the Kohn-Sham electronic structure.
  Please check out http://elsi-interchange.org to learn more.
  If scalability is important for your project, please acknowledge ELSI by citing:

    V. W-z. Yu, F. Corsetti, A. Garcia, W. P. Huhn, M. Jacquelin, W. Jia,
    B. Lange, L. Lin, J. Lu, W. Mi, A. Seifitokaldani, A. Vazquez-Mayagoitia,
    C. Yang, H. Yang, and V. Blum
    'ELSI: A unified software interface for Kohn-Sham electronic structure solvers'
    Computer Physics Communications 222, 267-285 (2018).
    http://dx.doi.org/10.1016/j.cpc.2017.09.007


  For the real-space grid partitioning and parallelization used in this calculation, please cite:

    Ville Havu, Volker Blum, Paula Havu, and Matthias Scheffler,
    'Efficient O(N) integration for all-electron electronic structure calculation'
    'using numerically tabulated basis functions'
    Journal of Computational Physics 228, 8367-8379 (2009).
    http://dx.doi.org/10.1016/j.jcp.2009.08.008

  Of course, there are many other important community references, e.g., those cited in the
  above references. Our list is limited to references that describe implementations in the
  FHI-aims code. The reason is purely practical (length of this list) - please credit others as well.

------------------------------------------------------------
          Leaving FHI-aims.
          Date     :  20220517, Time     :  120733.894

          Computational steps:
          | Number of self-consistency cycles          :           14
          | Number of SCF (re)initializations          :            1

          Detailed time accounting                     :  max(cpu_time)    wall_clock(cpu1)
          | Total time                                  :        2.041 s           2.108 s
          | Preparation time                            :        0.184 s           0.184 s
          | Boundary condition initalization            :        0.000 s           0.000 s
          | Grid partitioning                           :        0.038 s           0.039 s
          | Preloading free-atom quantities on grid     :        0.016 s           0.016 s
          | Free-atom superposition energy              :        0.005 s           0.005 s
          | Total time for integrations                 :        0.487 s           0.488 s
          | Total time for solution of K.-S. equations  :        0.110 s           0.110 s
          | Total time for density & force components   :        0.676 s           0.677 s
          | Total time for mixing                       :        0.065 s           0.033 s
          | Total time for Hartree multipole update     :        0.033 s           0.032 s
          | Total time for Hartree multipole sum        :        0.300 s           0.298 s
          | Total time for total energy evaluation      :        0.002 s           0.003 s
          | Total time NSC force correction             :        0.064 s           0.064 s
          | Total time for scaled ZORA corrections      :        0.000 s           0.000 s

          Partial memory accounting:
          | Residual value for overall tracked memory usage across tasks:     0.000000 MB (should be 0.000000 MB)
          | Peak values for overall tracked memory usage:
          |   Minimum:        3.031 MB (on task 19 after allocating hessian_basis_wave)
          |   Maximum:        3.192 MB (on task 16 after allocating hessian_basis_wave)
          |   Average:        3.118 MB
          | Largest tracked array allocation:
          |   Minimum:        1.483 MB (hessian_basis_wave on task 19)
          |   Maximum:        1.575 MB (hessian_basis_wave on task 16)
          |   Average:        1.533 MB
          Note:  These values currently only include a subset of arrays which are explicitly tracked.
          The "true" memory usage will be greater.

          Have a nice day.
------------------------------------------------------------
