********************************************************************************
*                       GENERAL UTILITY LATTICE PROGRAM                        *
*                                 Julian Gale                                  *
*                       Curtin Institute for Computation                       *
*                           Department of Chemistry                            *
*                    Curtin University, Western Australia                      *
********************************************************************************
* Version = 5.1.1 * Last modified =  11th January 2019                         *
********************************************************************************
*  single       - perform a single point run                                   *
*  phonon       - calculate phonons for final geometry                         *
*  eigenvectors - output phonon eigenvectors                                   *
********************************************************************************

  Job Started  at 10:32.59 17th May        2022                               

  Number of CPUs =     1

  Host name      = login04                                 


  Total number of configurations input =      1

********************************************************************************
*  Input for Configuration =   1                                               *
********************************************************************************

  Formula = Al3F9                                                       

  Number of irreducible atoms/shells =      21


  Total number atoms/shells =      21

  Dimensionality = 0               :  Cluster


  Charge on cluster =  -0.000000


  Initial cluster dipoles : x =      0.718203 e.Angs
                            y =      0.214833 e.Angs
                            z =     -1.031834 e.Angs

  Temperature of configuration =  0.000     K 

  Symmetry number =      1

  Cartesian coordinates of cluster :

--------------------------------------------------------------------------------
   No.  Atomic       x           y          z         Charge      Occupancy
        Label      (Angs)      (Angs)     (Angs)        (e)         (Frac)  
--------------------------------------------------------------------------------
      1 Al    c     -0.0252      1.5924      2.1991     3.00000    1.000000    
      2 Al    c      2.5396      2.5329      1.6734     3.00000    1.000000    
      3 Al    c      1.2775      2.7706     -0.6747     3.00000    1.000000    
      4 F     c      1.0613      3.0821      2.7588     0.59000    1.000000    
      5 F     c     -1.4549      2.7540      2.2112     0.59000    1.000000    
      6 F     c     -0.5816     -0.0388      2.7826     0.59000    1.000000    
      7 F     c      1.8404      0.7907      1.9948     0.59000    1.000000    
      8 F     c      2.8917      1.8909     -0.1039     0.59000    1.000000    
      9 F     c      1.1354      3.0169     -2.4630     0.59000    1.000000    
     10 F     c      1.7379      4.0698      0.6131     0.59000    1.000000    
     11 F     c      3.9812      3.1802      2.6116     0.59000    1.000000    
     12 F     c      0.0461      1.7268      0.2204     0.59000    1.000000    
     13 F     s      1.0613      3.0821      2.7588    -1.59000    1.000000    
     14 F     s     -1.4549      2.7540      2.2112    -1.59000    1.000000    
     15 F     s     -0.5816     -0.0388      2.7826    -1.59000    1.000000    
     16 F     s      1.8404      0.7907      1.9948    -1.59000    1.000000    
     17 F     s      2.8917      1.8909     -0.1039    -1.59000    1.000000    
     18 F     s      1.1354      3.0169     -2.4630    -1.59000    1.000000    
     19 F     s      1.7379      4.0698      0.6131    -1.59000    1.000000    
     20 F     s      3.9812      3.1802      2.6116    -1.59000    1.000000    
     21 F     s      0.0461      1.7268      0.2204    -1.59000    1.000000    
--------------------------------------------------------------------------------


  Brillouin zone sampling points :

--------------------------------------------------------------------------------
  Point number          x          y          z            Weight
--------------------------------------------------------------------------------
        1           0.000000   0.000000   0.000000     1.00000000
--------------------------------------------------------------------------------


********************************************************************************
*  General input information                                                   *
********************************************************************************

  Species output for all configurations : 

--------------------------------------------------------------------------------
  Species    Type    Atomic    Atomic    Charge       Radii (Angs)     Library
                     Number     Mass       (e)     Cova   Ionic  VDW   Symbol
--------------------------------------------------------------------------------
    Al       Core       13      26.98   3.000000   1.350  0.000  2.050          
    F        Core        9      19.00   0.590000   0.710  0.000  1.300          
    F        Shell       9       0.00  -1.590000   0.710  0.000  1.300          
--------------------------------------------------------------------------------


  Accuracy factor for short range sums = 12.000

  Time limit = Infinity

  Maximum range for interatomic potentials =    100000.000000 Angstroms

  General interatomic potentials :

--------------------------------------------------------------------------------
Atom  Types   Potential      Parameter       Value         Units   Cutoffs(Ang)
  1     2                                                            Min /  Max 
--------------------------------------------------------------------------------
Al   c F    s Buckingham    Buckingham A     3760.0008    eV        0.000 10.000
                            Buckingham rho  0.22200000    Ang       
                            Buckingham C     0.0000000    eV*Ang^6  
--------------------------------------------------------------------------------
F    s F    s Buck 4 range  Buck4 A          1127.7000    eV        0.000 12.000
                            Buck4 rho       0.27530000    Ang       
                            Buck4 C          15.830000    eV*Ang^6  
                            Buck4 minimum    2.7900000    Ang       
--------------------------------------------------------------------------------
F    c F    s Spring (c-s)  Spring k 2       20.770000    eV*Ang^-2 0.000  0.800
                            Spring k 4       0.0000000    eV*Ang^-4 
--------------------------------------------------------------------------------

********************************************************************************
*  Output for configuration   1                                                *
********************************************************************************


  Components of energy : 

--------------------------------------------------------------------------------
  Interatomic potentials     =          10.08983427 eV    
  Monopole - monopole (real) =        -177.67110320 eV    
--------------------------------------------------------------------------------
  Total lattice energy       =        -167.58126894 eV    
--------------------------------------------------------------------------------
  Total lattice energy       =          -16169.0307 kJ/mol
--------------------------------------------------------------------------------

  Born effective charge tensors : 

-------------------------------------------------------------------------------
  Atom             x           y             z
-------------------------------------------------------------------------------
    1 Al    x       2.4431     -0.0630     -0.1665
            y      -0.0577      2.2326     -0.1606
            z      -0.0736     -0.0475      2.0495
-------------------------------------------------------------------------------
    2 Al    x       2.2494      0.1445     -0.0067
            y       0.1190      2.2070     -0.0617
            z       0.0471     -0.0455      2.3480
-------------------------------------------------------------------------------
    3 Al    x       2.0869      0.0858      0.1421
            y       0.0752      1.8581     -0.0564
            z      -0.0063     -0.1889      2.4743
-------------------------------------------------------------------------------
    4 F     x      -0.8014     -0.1015      0.1359
            y      -0.0743     -0.6502     -0.1956
            z       0.1602     -0.1869     -0.6539
-------------------------------------------------------------------------------
    5 F     x      -1.0637      0.3698      0.0549
            y       0.2340     -0.7004      0.0331
            z       0.1532     -0.0607     -0.5635
-------------------------------------------------------------------------------
    6 F     x      -0.6289     -0.2678      0.1123
            y      -0.2196     -1.0369      0.2073
            z       0.1004      0.2465     -0.6134
-------------------------------------------------------------------------------
    7 F     x      -0.8408      0.0613      0.0517
            y       0.0251     -0.8913      0.1068
            z       0.0677      0.1446     -0.4685
-------------------------------------------------------------------------------
    8 F     x      -0.7605      0.2071      0.0364
            y       0.2438     -0.5096     -0.0616
            z       0.0060     -0.0935     -0.8140
-------------------------------------------------------------------------------
    9 F     x      -0.5050     -0.0009     -0.0523
            y       0.0031     -0.5070      0.1172
            z      -0.0560      0.1117     -1.2427
-------------------------------------------------------------------------------
   10 F     x      -0.4592      0.0573     -0.1001
            y       0.0498     -0.9776      0.0440
            z      -0.1884      0.0696     -0.6957
-------------------------------------------------------------------------------
   11 F     x      -1.0788     -0.2706     -0.3784
            y      -0.2328     -0.5811     -0.1296
            z      -0.3404     -0.1401     -0.7456
-------------------------------------------------------------------------------
   12 F     x      -0.6409     -0.2221      0.1707
            y      -0.1654     -0.4434      0.1571
            z       0.1299      0.1907     -1.0747
-------------------------------------------------------------------------------




  Moment of inertia tensor (10^-46 x kgm^2): 

-------------------------------------------------------------------------------
                x           y           z           Principal axis system
-------------------------------------------------------------------------------
       x        145.98      -21.89       10.97          114.668910
       y        -21.89      186.93       21.02          151.170913
       z         10.97       21.02      132.96          200.036290
-------------------------------------------------------------------------------
  Centre of mass (Ang) =     1.209796     2.282404     1.143784
-------------------------------------------------------------------------------


  Vibrational Frequency Calculation : 

--------------------------------------------------------------------------------

  Frequencies (cm-1) and Eigenvectors : 

  Frequency    -363.9017 -249.5601 -229.1474   -0.0000    0.0000    0.0000
  IR Intensity    0.0030    0.0043    0.0008    0.0000    0.0000    0.0000
     in X         0.0004    0.0006    0.0005    0.0000    0.0000    0.0000
     in Y         0.0020    0.0001    0.0003    0.0000    0.0000    0.0000
     in Z         0.0006    0.0036    0.0000    0.0000    0.0000    0.0000
  Raman Intsty    0.1515    0.0131    0.0071    0.0000    0.0000    0.0000

     1 x       0.129129  0.210582  0.330265 -0.088146 -0.305434  0.077650
     1 y      -0.266457  0.281264 -0.459390 -0.312600  0.094973  0.018719
     1 z      -0.035663  0.553545  0.039806  0.040007  0.069133  0.317347
     2 x      -0.253923  0.169743  0.088901 -0.088146 -0.305434  0.077650
     2 y       0.717342  0.035034  0.124015 -0.312600  0.094973  0.018719
     2 z       0.124682 -0.384729 -0.136162  0.040007  0.069133  0.317347
     3 x       0.153448 -0.393784 -0.409065 -0.088146 -0.305434  0.077650
     3 y      -0.425747 -0.302514  0.381707 -0.312600  0.094973  0.018719
     3 z      -0.130297 -0.075075  0.117610  0.040007  0.069133  0.317347
     4 x      -0.029996  0.037191  0.135551 -0.073971 -0.256314  0.065162
     4 y       0.067643  0.054167  0.006035 -0.262328  0.079700  0.015709
     4 z       0.099696  0.124623 -0.103543  0.033573  0.058015  0.266312
     5 x       0.100727  0.017241  0.235020 -0.073971 -0.256314  0.065162
     5 y      -0.069758 -0.011527 -0.183721 -0.262328  0.079700  0.015709
     5 z      -0.005904 -0.010669  0.015381  0.033573  0.058015  0.266312
     6 x      -0.045054  0.051990 -0.059336 -0.073971 -0.256314  0.065162
     6 y      -0.090209  0.099756 -0.223007 -0.262328  0.079700  0.015709
     6 z       0.025006  0.103387  0.067840  0.033573  0.058015  0.266312
     7 x      -0.078803 -0.035572 -0.132129 -0.073971 -0.256314  0.065162
     7 y       0.130150  0.113501 -0.033853 -0.262328  0.079700  0.015709
     7 z      -0.031065 -0.029925  0.016882  0.033573  0.058015  0.266312
     8 x      -0.039206  0.049122 -0.056316 -0.073971 -0.256314  0.065162
     8 y      -0.023049 -0.058380  0.094827 -0.262328  0.079700  0.015709
     8 z      -0.017443 -0.092519  0.139101  0.033573  0.058015  0.266312
     9 x       0.012584 -0.057281 -0.076764 -0.073971 -0.256314  0.065162
     9 y      -0.030842 -0.038803  0.085556 -0.262328  0.079700  0.015709
     9 z      -0.030778 -0.049042  0.038773  0.033573  0.058015  0.266312
    10 x       0.070611  0.015164 -0.081243 -0.073971 -0.256314  0.065162
    10 y      -0.077577 -0.188456  0.203723 -0.262328  0.079700  0.015709
    10 z       0.046028  0.026624 -0.093319  0.033573  0.058015  0.266312
    11 x       0.011338  0.006345  0.042277 -0.073971 -0.256314  0.065162
    11 y       0.077047  0.002017  0.027107 -0.262328  0.079700  0.015709
    11 z       0.023794 -0.066843 -0.022366  0.033573  0.058015  0.266312
    12 x      -0.036345 -0.068162 -0.019097 -0.073971 -0.256314  0.065162
    12 y      -0.013359  0.011299 -0.031877 -0.262328  0.079700  0.015709
    12 z      -0.060146 -0.117342 -0.084076  0.033573  0.058015  0.266312


  Frequency     117.8220  129.8234  143.3325  146.1998  149.5833  151.4614
  IR Intensity    0.0019    0.0019    0.0024    0.0011    0.0019    0.0002
     in X         0.0019    0.0001    0.0000    0.0009    0.0007    0.0000
     in Y         0.0000    0.0000    0.0013    0.0000    0.0006    0.0000
     in Z         0.0000    0.0018    0.0011    0.0001    0.0005    0.0002
  Raman Intsty    0.0771    0.0007    0.0345    0.0133    0.0409    0.0569

     1 x       0.005567 -0.002440 -0.005782  0.000139  0.004108 -0.017898
     1 y      -0.055315 -0.017383 -0.034492 -0.038295 -0.000797 -0.018160
     1 z       0.199469 -0.002506 -0.010368  0.023271  0.023968  0.025460
     2 x      -0.161614 -0.043043 -0.005958 -0.095686  0.031325 -0.067908
     2 y      -0.068498 -0.100665  0.008114  0.013958  0.005026 -0.008622
     2 z      -0.079347  0.048022 -0.045377 -0.029510 -0.050264 -0.045067
     3 x       0.188545  0.061670  0.009285  0.016853 -0.008892  0.047752
     3 y       0.087378  0.113347  0.043979  0.031190  0.028702  0.017624
     3 z      -0.174377 -0.023915  0.010459 -0.048136  0.038597 -0.036786
     4 x      -0.111440  0.037316  0.016993 -0.107840 -0.134519  0.162701
     4 y       0.087123 -0.056283 -0.184657 -0.105795  0.158938 -0.130183
     4 z      -0.160368  0.358323  0.275919  0.017525 -0.115770  0.169198
     5 x      -0.169702  0.104261 -0.135287 -0.099692 -0.113805  0.179675
     5 y      -0.331721  0.008710 -0.199753 -0.126057 -0.094055  0.245974
     5 z       0.360035 -0.339970  0.291263 -0.384773 -0.107245  0.129458
     6 x       0.103335 -0.172396  0.270164  0.250727 -0.136229 -0.297641
     6 y      -0.056991  0.006898 -0.266887  0.059741 -0.050622  0.103733
     6 z       0.360295  0.019628 -0.378158  0.425170 -0.192096  0.067995
     7 x      -0.097554 -0.290746  0.140383  0.196468  0.001093 -0.024992
     7 y      -0.029986  0.059095  0.014813 -0.073475  0.083555 -0.110307
     7 z      -0.045074 -0.146141 -0.145975  0.087726  0.352101  0.174019
     8 x      -0.049503  0.121082  0.065096 -0.035037 -0.184592 -0.229731
     8 y      -0.052722 -0.005789  0.103786  0.065983 -0.436975 -0.197056
     8 z      -0.076314  0.030610 -0.156032 -0.061156  0.036365  0.054770
     9 x       0.350213  0.337528 -0.132488 -0.037670 -0.101466  0.293837
     9 y       0.131003  0.413941  0.328303  0.190595  0.463977 -0.071561
     9 z      -0.191632 -0.019777  0.072602 -0.025113  0.123882 -0.072471
    10 x       0.081420 -0.101679 -0.190321 -0.190656  0.436725 -0.259704
    10 y       0.098378 -0.166088 -0.157292 -0.013663 -0.097948 -0.006519
    10 z      -0.128897  0.213222  0.232153  0.066692 -0.032109  0.021739
    11 x      -0.165463 -0.032044  0.027663 -0.217701  0.076975  0.158699
    11 y      -0.127294 -0.284515  0.193428  0.339167 -0.004985  0.172183
    11 z      -0.071965  0.142577 -0.234231 -0.076301 -0.133535 -0.575911
    12 x       0.019969 -0.022611 -0.059278  0.335175  0.124191  0.062501
    12 y       0.325627  0.029632  0.147283 -0.344662 -0.061127  0.004648
    12 z       0.018573 -0.284214  0.096423  0.015025  0.053749  0.098402


  Frequency     160.2125  171.9258  173.6669  186.7977  194.0926  203.9381
  IR Intensity    0.0019    0.0013    0.0006    0.0014    0.0086    0.0037
     in X         0.0000    0.0001    0.0006    0.0008    0.0053    0.0018
     in Y         0.0002    0.0004    0.0000    0.0004    0.0033    0.0019
     in Z         0.0016    0.0008    0.0000    0.0002    0.0000    0.0000
  Raman Intsty    0.0068    0.0041    0.0234    0.0006    0.1169    0.0316

     1 x       0.016556  0.058773  0.083039  0.006941 -0.074988  0.024564
     1 y       0.044307 -0.035155  0.066437 -0.000312  0.032962 -0.014221
     1 z       0.080508  0.043229  0.071990  0.117080 -0.063964  0.104118
     2 x       0.045584 -0.016203 -0.143084 -0.029178  0.071301 -0.021349
     2 y      -0.005234 -0.037280  0.000902  0.025854  0.056135  0.192173
     2 z      -0.025425 -0.067944 -0.006146 -0.056454  0.017449 -0.101296
     3 x      -0.059998 -0.020807  0.022909  0.084026 -0.127230 -0.165876
     3 y       0.007778 -0.026707  0.025730 -0.028042 -0.202190 -0.071953
     3 z       0.038245 -0.058488 -0.192361 -0.093170  0.086084  0.053774
     4 x      -0.117790  0.143056  0.084987  0.038392 -0.052741 -0.076187
     4 y       0.154769 -0.272108  0.131437 -0.071878  0.097734 -0.346308
     4 z      -0.043680 -0.018122  0.088131  0.018179 -0.347463 -0.026712
     5 x      -0.154125  0.198749  0.223747 -0.060188  0.002642 -0.189992
     5 y      -0.230114  0.231781  0.153167 -0.198037  0.123491  0.033825
     5 z      -0.092925  0.145544  0.125291  0.218480  0.339530 -0.270805
     6 x      -0.086941 -0.144897  0.210040 -0.586133  0.039962 -0.043279
     6 y      -0.137541  0.022642 -0.088603  0.178651  0.072557  0.029875
     6 z      -0.435652 -0.102138 -0.222520 -0.095327  0.015721 -0.125400
     7 x      -0.017920  0.070129  0.132869  0.029286  0.077283  0.318536
     7 y       0.126492 -0.247939  0.082674 -0.101967 -0.022807 -0.200648
     7 z       0.279015 -0.168095  0.295360  0.017708 -0.143469 -0.019783
     8 x       0.113051 -0.082779 -0.261656  0.297029 -0.010083 -0.291604
     8 y       0.062722 -0.205394 -0.061237  0.343425  0.068941  0.226512
     8 z       0.141307 -0.034424 -0.084633 -0.075625 -0.011970 -0.077658
     9 x       0.509195  0.066038 -0.117060 -0.205388  0.324783  0.285038
     9 y      -0.269033  0.157880  0.071836  0.100512  0.366953  0.030199
     9 z      -0.048075 -0.043193 -0.232280 -0.062786  0.167581  0.061931
    10 x      -0.150510  0.189484 -0.340780  0.040300 -0.209640  0.139737
    10 y       0.002253 -0.050405  0.078785  0.033510 -0.028145  0.259718
    10 z       0.012960 -0.092898 -0.087943 -0.031662 -0.070978  0.107182
    11 x      -0.178284 -0.446657 -0.147411 -0.018544  0.141917  0.081582
    11 y       0.303745  0.398114 -0.394794 -0.102316 -0.055987 -0.303389
    11 z       0.127884  0.390506  0.233531 -0.007089  0.069006  0.041702
    12 x       0.080771 -0.019056  0.259517  0.391615 -0.158117 -0.029998
    12 y      -0.069122  0.083570 -0.084169 -0.178921 -0.487973  0.143903
    12 z      -0.052048  0.021968  0.035826  0.056901 -0.065111  0.242100


  Frequency     221.0368  225.0323  239.3782  259.4258  274.3434  282.9893
  IR Intensity    0.0049    0.0066    0.0239    0.0888    0.0289    0.0387
     in X         0.0019    0.0039    0.0092    0.0002    0.0022    0.0287
     in Y         0.0001    0.0008    0.0136    0.0180    0.0010    0.0000
     in Z         0.0029    0.0019    0.0012    0.0706    0.0256    0.0100
  Raman Intsty    0.2307    0.1581    0.5482    0.0515    0.0553    1.7532

     1 x       0.077992  0.101508 -0.137503  0.010764  0.058992 -0.157736
     1 y       0.066389 -0.136831 -0.022033 -0.144815  0.021254 -0.028887
     1 z      -0.158265  0.019247 -0.015344 -0.298804  0.166302  0.070306
     2 x       0.192665  0.007960 -0.028189  0.054345 -0.028967  0.038084
     2 y       0.056544 -0.014318 -0.091155  0.065022 -0.043105  0.019968
     2 z       0.047491 -0.069712  0.071868 -0.169260  0.080860  0.007535
     3 x       0.042384  0.055440 -0.019564 -0.146599  0.117574 -0.124240
     3 y      -0.034762 -0.122865 -0.150752  0.276878  0.077090  0.055436
     3 z      -0.072618 -0.008942 -0.110304 -0.002086 -0.048571 -0.163280
     4 x       0.208873 -0.138543  0.111203 -0.059451 -0.267472 -0.119406
     4 y      -0.068124  0.080012 -0.244393 -0.024374 -0.045659 -0.127748
     4 z      -0.022987 -0.395789  0.144731  0.076941 -0.279755 -0.021266
     5 x      -0.151518  0.116730  0.035604 -0.030607  0.156754 -0.170222
     5 y      -0.428553  0.188961  0.016795  0.063884  0.060062  0.206923
     5 z      -0.013407 -0.190683  0.010923  0.185263  0.107884  0.014149
     6 x      -0.149742 -0.108793  0.073873 -0.098751 -0.001461  0.016675
     6 y       0.334153 -0.070000 -0.063746  0.098756  0.007059 -0.263430
     6 z       0.056109  0.059232  0.070640  0.189084 -0.067571  0.070420
     7 x       0.227764  0.110150  0.078914  0.160793  0.095269 -0.212717
     7 y      -0.026900 -0.121733 -0.009492  0.248012 -0.182619 -0.031606
     7 z       0.059641  0.221049  0.543464  0.236668  0.068300 -0.022691
     8 x      -0.178349  0.354097  0.152513 -0.016879 -0.148896 -0.003727
     8 y      -0.249132  0.034284  0.303980  0.036086  0.098576  0.023486
     8 z       0.086113  0.013709  0.043469 -0.468342  0.103402  0.058359
     9 x      -0.100918 -0.060694 -0.016430  0.128987 -0.111730  0.009271
     9 y       0.059431  0.146055  0.170264 -0.172521 -0.057727  0.051035
     9 z      -0.093194  0.064361 -0.132480 -0.046478 -0.194869 -0.414700
    10 x      -0.330776 -0.328324  0.160406  0.146933  0.104958  0.015229
    10 y      -0.001329 -0.286281  0.091176 -0.359234  0.029011 -0.126163
    10 z       0.017118  0.060014 -0.310149  0.227786  0.579827 -0.032565
    11 x       0.251066 -0.044646  0.015088 -0.044063  0.041013  0.556274
    11 y       0.091631 -0.047254  0.059115 -0.052299  0.044027  0.202210
    11 z       0.282939 -0.002834 -0.048058  0.128680 -0.064923  0.297770
    12 x      -0.149432 -0.096489 -0.390413 -0.089856 -0.044320  0.199254
    12 y       0.183754  0.402479 -0.009176 -0.073164 -0.018555  0.009862
    12 z      -0.153795  0.241732 -0.258452  0.030645 -0.488943  0.152336


  Frequency     303.6889  321.0588  337.0739  358.0212  368.0904  385.7812
  IR Intensity    0.1027    0.0272    0.0236    0.0774    0.1328    0.0686
     in X         0.0147    0.0243    0.0006    0.0705    0.0138    0.0538
     in Y         0.0448    0.0018    0.0005    0.0068    0.0733    0.0041
     in Z         0.0432    0.0010    0.0225    0.0002    0.0457    0.0107
  Raman Intsty    0.2840    0.0158    2.7957    0.9755    0.5202    1.9299

     1 x       0.057312  0.059361 -0.066922  0.005303 -0.154607  0.034728
     1 y       0.036356 -0.066570 -0.113051 -0.021544  0.074530  0.043670
     1 z      -0.150757 -0.071631  0.221164  0.002358  0.031793 -0.057401
     2 x       0.032979 -0.111693  0.044128 -0.200486 -0.082476  0.153849
     2 y       0.266178  0.032136 -0.003890 -0.072597  0.176742 -0.127472
     2 z      -0.221082  0.139125  0.031355  0.036175 -0.183962 -0.062009
     3 x      -0.021445 -0.236575  0.092978 -0.106338  0.055321  0.134336
     3 y       0.117448  0.123670  0.113576  0.001184  0.156080 -0.088082
     3 z      -0.028189 -0.018231  0.012979  0.003973 -0.071666 -0.028429
     4 x      -0.091296 -0.195501 -0.350553 -0.448135  0.218873 -0.048066
     4 y      -0.430135  0.262292  0.017549 -0.184994  0.299621 -0.122350
     4 z      -0.038145  0.225091  0.196468  0.071899  0.112043 -0.058793
     5 x      -0.292547  0.037884  0.008595  0.307521 -0.233909  0.041479
     5 y       0.192499 -0.037331  0.124530 -0.109219  0.120764  0.017564
     5 z       0.173889  0.027189 -0.018399  0.066131  0.018468  0.022297
     6 x       0.158845  0.073910 -0.242143  0.134851 -0.031287 -0.175895
     6 y       0.113809  0.253114 -0.241073  0.287934 -0.259023 -0.240669
     6 z      -0.001216 -0.069583  0.075451 -0.095806  0.078741  0.123290
     7 x      -0.073453  0.322456  0.476589 -0.089129  0.142131  0.174470
     7 y       0.098327 -0.224860  0.203377 -0.046298 -0.465747  0.430385
     7 z       0.081218 -0.156258 -0.170193  0.051541  0.054494 -0.135601
     8 x       0.287636  0.054947  0.214078 -0.042579 -0.056973 -0.406020
     8 y      -0.241387  0.055028 -0.300376  0.029738  0.054713  0.312826
     8 z       0.410129  0.399722 -0.108725 -0.147686  0.003111  0.353017
     9 x      -0.020742  0.045831 -0.027574  0.050855  0.010378 -0.024637
     9 y      -0.048578  0.021378 -0.030112 -0.060916 -0.092789  0.008315
     9 z       0.057927 -0.326019 -0.005061  0.375419  0.358663  0.124529
    10 x      -0.059807  0.137021 -0.111976 -0.040937 -0.012784  0.007488
    10 y       0.019783 -0.330711  0.277988 -0.089917 -0.193545 -0.305227
    10 z      -0.001371 -0.155532 -0.164115 -0.280019 -0.103050 -0.154191
    11 x      -0.142686 -0.050435  0.071780  0.244549  0.077035 -0.083117
    11 y      -0.197228 -0.076894  0.005180  0.082201 -0.019915 -0.001910
    11 z      -0.046469 -0.113254  0.025200  0.089885  0.077521 -0.021024
    12 x       0.152010 -0.081841 -0.122431  0.242308  0.103131  0.129502
    12 y      -0.007557 -0.028353 -0.053052  0.202244  0.070505  0.105890
    12 z      -0.159272  0.109939 -0.147004 -0.182015 -0.333261 -0.077353


  Frequency     404.3340  415.4161  452.9971  468.7289  528.9199  602.1506
  IR Intensity    0.4913    0.3973    0.2983    0.5757    0.1193    0.0363
     in X         0.2660    0.2978    0.0018    0.0906    0.0000    0.0007
     in Y         0.0647    0.0072    0.0380    0.4307    0.0515    0.0014
     in Z         0.1607    0.0923    0.2585    0.0543    0.0677    0.0343
  Raman Intsty    0.6809    0.1907    0.4029    0.0369    0.1345    1.6838

     1 x      -0.274051  0.470074  0.035938  0.011025  0.507664 -0.223847
     1 y       0.086984 -0.180397 -0.077175 -0.445595  0.418184 -0.157106
     1 z       0.321069  0.295954 -0.088897  0.024117 -0.213497  0.162620
     2 x      -0.392639  0.018323  0.170844 -0.357152 -0.336999  0.406872
     2 y       0.120593 -0.037025 -0.025357 -0.351644 -0.122688  0.079094
     2 z       0.200855  0.202047  0.496891 -0.165368  0.248297  0.320726
     3 x      -0.076456  0.308349 -0.359600 -0.092072 -0.205920 -0.122285
     3 y       0.263139  0.184835 -0.220093 -0.182935  0.037251  0.126947
     3 z       0.105784  0.048203  0.232038 -0.207349 -0.342643 -0.691227
     4 x       0.373028 -0.026043  0.101750  0.216356 -0.001182 -0.003443
     4 y      -0.217755 -0.069992  0.027695  0.169419 -0.063637 -0.013081
     4 z      -0.322951 -0.022915 -0.044803  0.017441 -0.034526 -0.032367
     5 x       0.103924 -0.390324 -0.222267 -0.213678 -0.055072  0.032248
     5 y      -0.119832  0.209588  0.148699  0.181493 -0.023196 -0.004871
     5 z      -0.099822 -0.052807  0.053392  0.018458  0.016026 -0.020868
     6 x       0.028757  0.026093 -0.020839  0.057641 -0.129989  0.043582
     6 y       0.015836  0.181162 -0.049384  0.226839 -0.251434  0.083271
     6 z      -0.072161 -0.134831  0.043623 -0.058774  0.099025 -0.042253
     7 x       0.156929 -0.139859  0.057799  0.135836  0.050088 -0.038477
     7 y       0.232855 -0.016354  0.018419  0.238033 -0.000966  0.010321
     7 z      -0.077588  0.000705 -0.009917 -0.043837 -0.007325 -0.010368
     8 x       0.104052 -0.139639  0.021184  0.044249  0.096960 -0.005413
     8 y      -0.088536  0.084633 -0.038219  0.020396 -0.050853 -0.011173
     8 z      -0.021732 -0.160004 -0.205778  0.138404  0.006445  0.014094
     9 x       0.023981 -0.050944  0.039463  0.017728  0.034767  0.024989
     9 y      -0.057776 -0.030014  0.039219  0.013969 -0.022458 -0.038937
     9 z      -0.015688  0.006186 -0.125801  0.137968  0.160652  0.252833
    10 x       0.033129 -0.072112 -0.011459  0.065398  0.044185  0.006771
    10 y      -0.252519 -0.197803  0.008754  0.152849  0.054989 -0.020450
    10 z      -0.059110 -0.235729 -0.045290  0.186771  0.064060  0.061645
    11 x       0.064729  0.018503 -0.133475  0.125913  0.073162 -0.110548
    11 y      -0.044197  0.017652 -0.035106  0.095626  0.025714 -0.037220
    11 z      -0.041662 -0.016291 -0.136615  0.074086 -0.007410 -0.072406
    12 x      -0.002969 -0.175107  0.349947  0.072733 -0.070907 -0.022090
    12 y      -0.028999 -0.140041  0.264376  0.069386 -0.064674 -0.026172
    12 z      -0.037286 -0.035194 -0.291500 -0.055114  0.069891  0.097409




--------------------------------------------------------------------------------
  Vibrational properties (for cluster):  Temperature  =       0.000 K
--------------------------------------------------------------------------------
  Zero point energy            =        0.519331 eV
--------------------------------------------------------------------------------

  Phonon density of states : 

--------------------------------------------------------------------------------
 Frequency (cm-1) Density of States                                             
--------------------------------------------------------------------------------
    0.00000 |****************************************                      0.062
    9.40860 |                                                              0.000
   18.81721 |                                                              0.000
   28.22581 |                                                              0.000
   37.63441 |                                                              0.000
   47.04302 |                                                              0.000
   56.45162 |                                                              0.000
   65.86023 |                                                              0.000
   75.26883 |                                                              0.000
   84.67743 |                                                              0.000
   94.08604 |                                                              0.000
  103.49464 |                                                              0.000
  112.90324 |********************                                          0.031
  122.31185 |********************                                          0.031
  131.72045 |                                                              0.000
  141.12906 |************************************************************  0.094
  150.53766 |********************                                          0.031
  159.94626 |********************                                          0.031
  169.35487 |****************************************                      0.062
  178.76347 |********************                                          0.031
  188.17207 |********************                                          0.031
  197.58068 |********************                                          0.031
  206.98928 |                                                              0.000
  216.39789 |****************************************                      0.062
  225.80649 |                                                              0.000
  235.21509 |********************                                          0.031
  244.62370 |                                                              0.000
  254.03230 |********************                                          0.031
  263.44090 |                                                              0.000
  272.84951 |********************                                          0.031
  282.25811 |********************                                          0.031
  291.66672 |                                                              0.000
  301.07532 |********************                                          0.031
  310.48392 |                                                              0.000
  319.89253 |********************                                          0.031
  329.30113 |********************                                          0.031
  338.70973 |                                                              0.000
  348.11834 |                                                              0.000
  357.52694 |********************                                          0.031
  366.93554 |********************                                          0.031
  376.34415 |                                                              0.000
  385.75275 |********************                                          0.031
  395.16136 |********************                                          0.031
  404.56996 |                                                              0.000
  413.97856 |********************                                          0.031
  423.38717 |                                                              0.000
  432.79577 |                                                              0.000
  442.20437 |                                                              0.000
  451.61298 |********************                                          0.031
  461.02158 |********************                                          0.031
  470.43019 |                                                              0.000
  479.83879 |                                                              0.000
  489.24739 |                                                              0.000
  498.65600 |                                                              0.000
  508.06460 |                                                              0.000
  517.47320 |                                                              0.000
  526.88181 |********************                                          0.031
  536.29041 |                                                              0.000
  545.69902 |                                                              0.000
  555.10762 |                                                              0.000
  564.51622 |                                                              0.000
  573.92483 |                                                              0.000
  583.33343 |                                                              0.000
  592.74203 |********************                                          0.031
--------------------------------------------------------------------------------



  XYZ File written as 004/2/sp_mod_-40/sp_mod_-40_eig.xyz


  Time to end of properties =       0.0127 seconds


  Peak dynamic memory used =       0.64 MB 


  Timing analysis for GULP :

--------------------------------------------------------------------------------
  Task / Subroutine                                          Time (Seconds)
--------------------------------------------------------------------------------
  Calculation of phonons                                          0.0036
--------------------------------------------------------------------------------
  Total CPU time                                                  0.0128
--------------------------------------------------------------------------------


  Job Finished at 10:32.59 17th May        2022                               

