********************************************************************************
*                       GENERAL UTILITY LATTICE PROGRAM                        *
*                                 Julian Gale                                  *
*                       Curtin Institute for Computation                       *
*                           Department of Chemistry                            *
*                    Curtin University, Western Australia                      *
********************************************************************************
* Version = 5.1.1 * Last modified =  24th November 2018                        *
********************************************************************************
*  optimise     - perform optimisation run                                     *
*  conp         - constant pressure calculation                                *
*  shell        - only shells and radii to be optimised                        *
*  phonon       - calculate phonons for final geometry                         *
*  eigenvectors - output phonon eigenvectors                                   *
********************************************************************************

  Job Started  at 14:39.03 25th May        2022                               

  Number of CPUs =     1

  Host name      = login03                                 


  Total number of configurations input =      1

********************************************************************************
*  Input for Configuration =   1                                               *
********************************************************************************

  Formula = Al3F9                                                       

  Number of irreducible atoms/shells =      21


  Total number atoms/shells =      21

  Dimensionality = 0               :  Cluster


  Charge on cluster =  -0.000000


  Initial cluster dipoles : x =      0.269978 e.Angs
                            y =      0.011431 e.Angs
                            z =     -0.241616 e.Angs

  Temperature of configuration =  0.000     K 

  Symmetry number =      1

  Cartesian coordinates of cluster :

--------------------------------------------------------------------------------
   No.  Atomic       x           y          z         Charge      Occupancy
        Label      (Angs)      (Angs)     (Angs)        (e)         (Frac)  
--------------------------------------------------------------------------------
      1 Al    c     -0.3594      1.0121     -1.8191     3.00000    1.000000    
      2 Al    c     -0.4466      1.0683      1.2818     3.00000    1.000000    
      3 Al    c     -3.0237      0.4761     -1.8591     3.00000    1.000000    
      4 F     c     -3.5485      0.3923     -3.6012     0.59000    1.000000    
      5 F     c     -1.3923     -0.5669     -1.8835     0.59000    1.000000    
      6 F     c     -1.9298      2.0696     -1.8512     0.59000    1.000000    
      7 F     c     -2.0159      0.6306      0.4573     0.59000    1.000000    
      8 F     c      0.6064      1.2237     -0.2939     0.59000    1.000000    
      9 F     c     -0.3605      2.7700      1.9198     0.59000    1.000000    
     10 F     c      0.4069     -0.2998      2.1192     0.59000    1.000000    
     11 F     c     -4.2735      0.1962     -0.5805     0.59000    1.000000    
     12 F     c      0.7479      1.2424     -3.2338     0.59000    1.000000    
     13 F     s     -3.5485 *    0.3923 *   -3.6012 *  -1.59000    1.000000    
     14 F     s     -1.3923 *   -0.5669 *   -1.8835 *  -1.59000    1.000000    
     15 F     s     -1.9298 *    2.0696 *   -1.8512 *  -1.59000    1.000000    
     16 F     s     -2.0159 *    0.6306 *    0.4573 *  -1.59000    1.000000    
     17 F     s      0.6064 *    1.2237 *   -0.2939 *  -1.59000    1.000000    
     18 F     s     -0.3605 *    2.7700 *    1.9198 *  -1.59000    1.000000    
     19 F     s      0.4069 *   -0.2998 *    2.1192 *  -1.59000    1.000000    
     20 F     s     -4.2735 *    0.1962 *   -0.5805 *  -1.59000    1.000000    
     21 F     s      0.7479 *    1.2424 *   -3.2338 *  -1.59000    1.000000    
--------------------------------------------------------------------------------


  Brillouin zone sampling points :

--------------------------------------------------------------------------------
  Point number          x          y          z            Weight
--------------------------------------------------------------------------------
        1           0.000000   0.000000   0.000000     1.00000000
--------------------------------------------------------------------------------


********************************************************************************
*  General input information                                                   *
********************************************************************************

  Species output for all configurations : 

--------------------------------------------------------------------------------
  Species    Type    Atomic    Atomic    Charge       Radii (Angs)     Library
                     Number     Mass       (e)     Cova   Ionic  VDW   Symbol
--------------------------------------------------------------------------------
    Al       Core       13      26.98   3.000000   1.350  0.000  2.050          
    F        Core        9      19.00   0.590000   0.710  0.000  1.300          
    F        Shell       9       0.00  -1.590000   0.710  0.000  1.300          
--------------------------------------------------------------------------------


  Accuracy factor for short range sums = 12.000

  Time limit = Infinity

  Maximum range for interatomic potentials =    100000.000000 Angstroms

  General interatomic potentials :

--------------------------------------------------------------------------------
Atom  Types   Potential      Parameter       Value         Units   Cutoffs(Ang)
  1     2                                                            Min /  Max 
--------------------------------------------------------------------------------
Al   c F    s Buckingham    Buckingham A     3760.0008    eV        0.000 10.000
                            Buckingham rho  0.22200000    Ang       
                            Buckingham C     0.0000000    eV*Ang^6  
--------------------------------------------------------------------------------
F    s F    s Buck 4 range  Buck4 A          1127.7000    eV        0.000 12.000
                            Buck4 rho       0.27530000    Ang       
                            Buck4 C          15.830000    eV*Ang^6  
                            Buck4 minimum    2.7900000    Ang       
--------------------------------------------------------------------------------
F    c F    s Spring (c-s)  Spring k 2       20.770000    eV*Ang^-2 0.000  0.800
                            Spring k 4       0.0000000    eV*Ang^-4 
--------------------------------------------------------------------------------

********************************************************************************
*  Output for configuration   1                                                *
********************************************************************************


  Components of energy : 

--------------------------------------------------------------------------------
  Interatomic potentials     =          10.46052562 eV    
  Monopole - monopole (real) =        -179.15035086 eV    
--------------------------------------------------------------------------------
  Total lattice energy       =        -168.68982524 eV    
--------------------------------------------------------------------------------
  Total lattice energy       =          -16275.9895 kJ/mol
--------------------------------------------------------------------------------


  Number of variables =       27

  Maximum number of calculations  =          2000
  Maximum Hessian update interval =            10
  Maximum step size               =   1.000000000
  Maximum parameter tolerance     =   0.000001000
  Maximum function  tolerance     =   0.000010000
  Maximum gradient  tolerance     =   0.000000010
  Maximum gradient  component     =   0.010000000

  Symmetry not applied to optimisation

  Newton-Raphson optimiser to be used

  BFGS hessian update to be used

  Lower half triangular hessian to be used

  Minimiser to switch to RFO
  When gradient norm is less than     0.010000

  Shell only optimisation

  Start of cluster optimisation :

  Cycle:      0 Energy:      -168.689825  Gnorm:      1.428464  CPU:    0.004
  ** Hessian calculated **
  Cycle:      1 Energy:      -185.283706  Gnorm:      0.449541  CPU:    0.005
  ** Hessian calculated **
  Cycle:      2 Energy:      -186.558019  Gnorm:      0.019469  CPU:    0.007
  Cycle:      3 Energy:      -186.560770  Gnorm:      0.004337  CPU:    0.008
  ** Hessian has required structure
  Cycle:      4 Energy:      -186.560782  Gnorm:      0.003950  CPU:    0.010
  ** Hessian has required structure
  Cycle:      5 Energy:      -186.560784  Gnorm:      0.003892  CPU:    0.011
  ** Hessian has required structure
  Cycle:      6 Energy:      -186.560785  Gnorm:      0.003854  CPU:    0.013
  ** Hessian has required structure
  Cycle:      7 Energy:      -186.560785  Gnorm:      0.003852  CPU:    0.014
  ** Hessian has required structure
  Cycle:      8 Energy:      -186.560786  Gnorm:      0.003852  CPU:    0.016
  ** Hessian has required structure
  Cycle:      9 Energy:      -186.560787  Gnorm:      0.003790  CPU:    0.017
  ** Hessian has required structure
  Cycle:     10 Energy:      -186.560792  Gnorm:      0.003673  CPU:    0.018
  ** Hessian has required structure
  Cycle:     11 Energy:      -186.560854  Gnorm:      0.002167  CPU:    0.020
  ** Hessian has required structure
  Cycle:     12 Energy:      -186.560896  Gnorm:      0.000001  CPU:    0.021
  ** Hessian has required structure
  Cycle:     13 Energy:      -186.560896  Gnorm:      0.000000  CPU:    0.023
  ** Hessian has required structure

  XYZ File written as 003/1/sp_mod_-20/sp_mod_-20_eig.xyz



  **** Optimisation achieved ****


  Final energy =    -186.56089584 eV
  Final Gnorm  =       0.00000000

  Components of energy : 

--------------------------------------------------------------------------------
  Interatomic potentials     =          38.44875693 eV    
  Monopole - monopole (real) =        -225.00965278 eV    
--------------------------------------------------------------------------------
  Total lattice energy       =        -186.56089584 eV    
--------------------------------------------------------------------------------
  Total lattice energy       =          -18000.2746 kJ/mol
--------------------------------------------------------------------------------

  Final cartesian coordinates of atoms :

--------------------------------------------------------------------------------
   No.  Atomic        x           y          z          Radius
        Label       (Angs)      (Angs)     (Angs)       (Angs) 
--------------------------------------------------------------------------------
     1  Al    c    -0.359447    1.012108   -1.819069    0.000000
     2  Al    c    -0.446569    1.068264    1.281780    0.000000
     3  Al    c    -3.023725    0.476149   -1.859149    0.000000
     4  F     c    -3.548479    0.392347   -3.601208    0.000000
     5  F     c    -1.392335   -0.566911   -1.883481    0.000000
     6  F     c    -1.929802    2.069605   -1.851189    0.000000
     7  F     c    -2.015871    0.630636    0.457348    0.000000
     8  F     c     0.606418    1.223661   -0.293889    0.000000
     9  F     c    -0.360485    2.770024    1.919818    0.000000
    10  F     c     0.406931   -0.299757    2.119245    0.000000
    11  F     c    -4.273468    0.196150   -0.580513    0.000000
    12  F     c     0.747889    1.242378   -3.233829    0.000000
    13  F     s    -3.463994    0.406128   -3.341530    0.000000
    14  F     s    -1.427858   -0.282871   -1.868800    0.000000
    15  F     s    -1.851450    1.792881   -1.843129    0.000000
    16  F     s    -1.790532    0.694165    0.497453    0.000000
    17  F     s     0.355560    1.175841   -0.355260    0.000000
    18  F     s    -0.373082    2.517280    1.820658    0.000000
    19  F     s     0.280103   -0.097186    1.990617    0.000000
    20  F     s    -4.080500    0.239739   -0.780989    0.000000
    21  F     s     0.573970    1.205844   -3.007676    0.000000
--------------------------------------------------------------------------------


  Final Cartesian derivatives :

--------------------------------------------------------------------------------
   No.  Atomic          x             y             z           Radius
        Label       (eV/Angs)     (eV/Angs)    (eV/Angs)      (eV/Angs)
--------------------------------------------------------------------------------
      1 Al    c       0.000000      0.000000      0.000000      0.000000
      2 Al    c       0.000000      0.000000      0.000000      0.000000
      3 Al    c       0.000000      0.000000      0.000000      0.000000
      4 F     c       0.000000      0.000000      0.000000      0.000000
      5 F     c       0.000000      0.000000      0.000000      0.000000
      6 F     c       0.000000      0.000000      0.000000      0.000000
      7 F     c       0.000000      0.000000      0.000000      0.000000
      8 F     c       0.000000      0.000000      0.000000      0.000000
      9 F     c       0.000000      0.000000      0.000000      0.000000
     10 F     c       0.000000      0.000000      0.000000      0.000000
     11 F     c       0.000000      0.000000      0.000000      0.000000
     12 F     c       0.000000      0.000000      0.000000      0.000000
     13 F     s      -0.000000     -0.000000     -0.000000      0.000000
     14 F     s      -0.000000      0.000000      0.000000      0.000000
     15 F     s       0.000000     -0.000000     -0.000000      0.000000
     16 F     s      -0.000000      0.000000     -0.000000      0.000000
     17 F     s      -0.000000      0.000000      0.000000      0.000000
     18 F     s       0.000000     -0.000000      0.000000      0.000000
     19 F     s      -0.000000     -0.000000     -0.000000      0.000000
     20 F     s       0.000000     -0.000000     -0.000000      0.000000
     21 F     s       0.000000     -0.000000     -0.000000      0.000000
--------------------------------------------------------------------------------
  Maximum abs         0.000000      0.000000      0.000000      0.000000
--------------------------------------------------------------------------------


  Born effective charge tensors : 

-------------------------------------------------------------------------------
  Atom             x           y             z
-------------------------------------------------------------------------------
    1 Al    x       1.0253     -0.0310      0.1951
            y      -0.0291      1.1463      0.0362
            z       0.1132      0.0225      0.9696
-------------------------------------------------------------------------------
    2 Al    x       0.9142      0.1117     -0.3618
            y       0.1167      0.4081     -0.0271
            z      -0.4119     -0.0458      1.3640
-------------------------------------------------------------------------------
    3 Al    x       1.3198     -0.0204      0.2792
            y      -0.0250      1.3899      0.0680
            z       0.3782      0.0919      0.6946
-------------------------------------------------------------------------------
    4 F     x      -0.5328     -0.0028      0.1468
            y      -0.0012     -0.5330      0.0229
            z       0.0818      0.0087     -0.0070
-------------------------------------------------------------------------------
    5 F     x      -0.3618      0.0465     -0.0078
            y       0.0810     -0.2219     -0.0065
            z      -0.0093     -0.0095     -0.3408
-------------------------------------------------------------------------------
    6 F     x      -0.2989     -0.0695     -0.0149
            y      -0.1056     -0.2861      0.0039
            z      -0.0137      0.0035     -0.3435
-------------------------------------------------------------------------------
    7 F     x      -0.2116      0.0528      0.1577
            y       0.0475     -0.3590      0.0420
            z       0.2113      0.0599     -0.6392
-------------------------------------------------------------------------------
    8 F     x      -0.3163     -0.0089      0.1004
            y      -0.0086     -0.2649      0.0159
            z       0.1644      0.0278     -0.2873
-------------------------------------------------------------------------------
    9 F     x      -0.5266      0.0249      0.0113
            y       0.0201     -0.0329      0.1469
            z      -0.0084      0.1921     -0.5207
-------------------------------------------------------------------------------
   10 F     x      -0.4071     -0.2036      0.1108
            y      -0.1980     -0.1989     -0.1693
            z       0.1102     -0.2172     -0.4673
-------------------------------------------------------------------------------
   11 F     x      -0.2800      0.0577     -0.3159
            y       0.0598     -0.5280     -0.0696
            z      -0.2994     -0.0681     -0.2335
-------------------------------------------------------------------------------
   12 F     x      -0.3242      0.0427     -0.3008
            y       0.0425     -0.5197     -0.0631
            z      -0.3164     -0.0660     -0.1888
-------------------------------------------------------------------------------




  Moment of inertia tensor (10^-46 x kgm^2): 

-------------------------------------------------------------------------------
                x           y           z           Principal axis system
-------------------------------------------------------------------------------
       x        166.76      -16.55      -40.32          105.111241
       y        -16.55      239.85      -10.06          192.889771
       z        -40.32      -10.06      134.83          243.440912
-------------------------------------------------------------------------------
  Centre of mass (Ang) =    -1.296941     0.851312    -0.780591
-------------------------------------------------------------------------------


  Vibrational Frequency Calculation : 

--------------------------------------------------------------------------------

  Frequencies (cm-1) and Eigenvectors : 

  Frequency      -0.0000    0.0000    0.0000    6.0980    8.9893   10.7106
  IR Intensity    0.0000    0.0000    0.0000    0.0001    0.0001    0.0003
     in X         0.0000    0.0000    0.0000    0.0000    0.0000    0.0000
     in Y         0.0000    0.0000    0.0000    0.0000    0.0000    0.0003
     in Z         0.0000    0.0000    0.0000    0.0000    0.0000    0.0000
  Raman Intsty    0.0000    0.0000    0.0000    0.0001    0.0007    0.0001

     1 x      -0.104435  0.307088 -0.043352 -0.115383  0.053211  0.081481
     1 y       0.307648  0.096802 -0.055416 -0.072620  0.025184 -0.275650
     1 z       0.039179  0.058441  0.319591 -0.117831  0.042616  0.024803
     2 x      -0.104435  0.307088 -0.043352  0.221132 -0.166196 -0.073408
     2 y       0.307648  0.096802 -0.055416  0.190214  0.266596  0.116444
     2 z       0.039179  0.058441  0.319591 -0.112208  0.035948  0.014344
     3 x      -0.104435  0.307088 -0.043352 -0.111326  0.116936 -0.002426
     3 y       0.307648  0.096802 -0.055416 -0.118244 -0.282913  0.141780
     3 z       0.039179  0.058441  0.319591  0.222866 -0.076016 -0.037310
     4 x      -0.087640  0.257702 -0.036380 -0.247537  0.210880  0.060686
     4 y       0.258172  0.081235 -0.046504 -0.247070 -0.432267  0.012970
     4 z       0.032878  0.049043  0.268195  0.240477 -0.088706 -0.045260
     5 x      -0.087640  0.257702 -0.036380 -0.081785  0.199712 -0.139145
     5 y       0.258172  0.081235 -0.046504 -0.079971 -0.083686 -0.100084
     5 z       0.032878  0.049043  0.268195  0.124562  0.116266  0.137609
     6 x      -0.087640  0.257702 -0.036380 -0.113255 -0.053911  0.210033
     6 y       0.258172  0.081235 -0.046504 -0.084028 -0.131319 -0.026136
     6 z       0.032878  0.049043  0.268195 -0.043609 -0.140036 -0.147549
     7 x      -0.087640  0.257702 -0.036380  0.108669 -0.068186 -0.080403
     7 y       0.258172  0.081235 -0.046504  0.108199  0.071898  0.205442
     7 z       0.032878  0.049043  0.268195  0.080089 -0.023747 -0.008903
     8 x      -0.087640  0.257702 -0.036380  0.037418 -0.067994  0.026227
     8 y       0.258172  0.081235 -0.046504  0.068950  0.223880 -0.193255
     8 z       0.032878  0.049043  0.268195 -0.201892  0.078684  0.042376
     9 x      -0.087640  0.257702 -0.036380  0.243210 -0.287152  0.114749
     9 y       0.258172  0.081235 -0.046504  0.196513  0.260072  0.150739
     9 z       0.032878  0.049043  0.268195 -0.200723 -0.047220 -0.153296
    10 x      -0.087640  0.257702 -0.036380  0.264144 -0.087992 -0.262925
    10 y       0.258172  0.081235 -0.046504  0.208915  0.322622  0.078461
    10 z       0.032878  0.049043  0.268195 -0.093443  0.139695  0.185852
    11 x      -0.087640  0.257702 -0.036380  0.022675  0.043502 -0.097828
    11 y       0.258172  0.081235 -0.046504 -0.012366 -0.256547  0.420885
    11 z       0.032878  0.049043  0.268195  0.319576 -0.121255 -0.058815
    12 x      -0.087640  0.257702 -0.036380 -0.226893  0.106434  0.161876
    12 y       0.258172  0.081235 -0.046504 -0.158368  0.014781 -0.528257
    12 z       0.032878  0.049043  0.268195 -0.216490  0.083282  0.045796


  Frequency      30.9519   45.4446   55.6684   72.9837  106.5454  154.1713
  IR Intensity    0.0015    0.0068    0.0020    0.0025    0.0021    0.0210
     in X         0.0000    0.0063    0.0009    0.0000    0.0017    0.0132
     in Y         0.0015    0.0005    0.0011    0.0025    0.0001    0.0006
     in Z         0.0000    0.0000    0.0000    0.0000    0.0004    0.0072
  Raman Intsty    0.0016    0.1463    0.0079    0.0031    0.0033    0.0093

     1 x      -0.017941 -0.172837  0.052160 -0.049505 -0.041697  0.055444
     1 y       0.106655 -0.066962  0.006058  0.080438 -0.010755  0.007786
     1 z      -0.011238  0.274073 -0.071576  0.043096 -0.035687  0.074328
     2 x      -0.001991  0.198044 -0.040361  0.052718 -0.021647  0.039375
     2 y      -0.011447  0.044115 -0.103997 -0.086323 -0.006822  0.015908
     2 z       0.006985  0.185627 -0.049181  0.033393  0.049188  0.009253
     3 x       0.013788 -0.145522  0.039991 -0.011574 -0.006976  0.130386
     3 y      -0.050138 -0.022530  0.016644 -0.068909  0.005780  0.015018
     3 z       0.001566 -0.439447  0.115945 -0.077367 -0.061331  0.047362
     4 x       0.083342 -0.147970  0.094910  0.068246  0.485424  0.157086
     4 y      -0.340817 -0.069908 -0.289585 -0.350737  0.118544  0.040144
     4 z      -0.006496 -0.347801  0.091100 -0.073343 -0.211269  0.030023
     5 x       0.063495 -0.164949  0.057639  0.050698 -0.031472  0.090753
     5 y       0.029406 -0.040409  0.000108  0.012486 -0.023524 -0.023589
     5 z       0.188835 -0.072681  0.002443 -0.020129  0.293683  0.021919
     6 x      -0.062533 -0.140350  0.034350 -0.104862 -0.029666  0.070153
     6 y       0.009675 -0.047382 -0.001783 -0.020462  0.008688  0.042272
     6 z      -0.194124 -0.077087  0.023831  0.032270  0.278824  0.059957
     7 x      -0.110465  0.263242  0.026999  0.023770 -0.187534  0.205010
     7 y       0.405957 -0.035229 -0.350512 -0.001643 -0.037626 -0.021879
     7 z      -0.003342 -0.030504 -0.006433  0.022576  0.351609 -0.253737
     8 x      -0.051530  0.056258 -0.053592  0.084527 -0.098668  0.169139
     8 y       0.198461  0.153623  0.188389 -0.396497 -0.019505  0.133195
     8 z      -0.003851  0.076619 -0.023609  0.019128 -0.011124  0.011866
     9 x       0.314022  0.058096 -0.382486  0.243891  0.160701 -0.185164
     9 y      -0.168411  0.007526 -0.110939  0.035510  0.021334 -0.026989
     9 z       0.380750  0.246592  0.063704 -0.279691 -0.049903  0.138038
    10 x      -0.191176  0.275448  0.258676 -0.146849  0.261287 -0.343382
    10 y      -0.342537  0.067770  0.029640 -0.017596  0.074694 -0.093796
    10 z      -0.340834  0.096421 -0.145461  0.308755 -0.106611  0.209434
    11 x      -0.041033  0.122202 -0.160562 -0.047354 -0.202590  0.131507
    11 y       0.127333  0.152074  0.638362  0.304130 -0.046013  0.033401
    11 z      -0.012762 -0.100631  0.046494 -0.024716 -0.263967  0.061140
    12 x       0.003199 -0.178606  0.062352 -0.162103 -0.273684 -0.563465
    12 y       0.027226 -0.133993 -0.006804  0.523934 -0.082533 -0.128891
    12 z      -0.004976  0.184939 -0.046335  0.016196 -0.224247 -0.434677


  Frequency     170.5386  181.9791  187.7165  199.0802  205.9691  227.0322
  IR Intensity    0.0053    0.0200    0.0306    0.0031    0.0011    0.0533
     in X         0.0016    0.0002    0.0008    0.0000    0.0000    0.0284
     in Y         0.0036    0.0023    0.0277    0.0000    0.0009    0.0007
     in Z         0.0000    0.0175    0.0021    0.0031    0.0001    0.0243
  Raman Intsty    0.0014    0.2594    0.0219    0.0219    0.0005    0.0094

     1 x       0.075531 -0.116843  0.123449  0.054932 -0.000698  0.215944
     1 y      -0.207070 -0.168551 -0.434536  0.000291  0.026106  0.054295
     1 z       0.001303  0.227589 -0.071059  0.163421  0.021131  0.178985
     2 x      -0.024063  0.170102 -0.096542 -0.125242 -0.044028 -0.045877
     2 y       0.035836  0.096813  0.179243 -0.013705  0.173696 -0.011949
     2 z       0.021838 -0.134823  0.016306  0.109761  0.000584  0.133532
     3 x       0.023121 -0.093231  0.037560  0.078752  0.031290  0.146050
     3 y       0.086486 -0.029075 -0.109443  0.021028 -0.103489  0.000347
     3 z      -0.013071  0.139354 -0.024498 -0.191131 -0.003543 -0.023229
     4 x      -0.042693  0.227656 -0.093930 -0.104780  0.035964 -0.517068
     4 y       0.045832  0.097606  0.208084 -0.005643 -0.147975 -0.083445
     4 z       0.010256  0.023310  0.001690 -0.112855 -0.002321  0.185166
     5 x      -0.078261 -0.119712 -0.028737  0.035870  0.085330  0.173212
     5 y      -0.104740 -0.144462 -0.313231  0.005567  0.005622  0.068414
     5 z       0.180563  0.145154 -0.156833  0.117214 -0.567478  0.019769
     6 x       0.175881 -0.037623  0.192628  0.048024 -0.068952  0.156353
     6 y      -0.045269 -0.060709 -0.291736 -0.000531 -0.034011 -0.020675
     6 z      -0.246965  0.142953  0.082329  0.068057  0.566379  0.018603
     7 x      -0.076574  0.240655 -0.051284 -0.162528 -0.061436 -0.011897
     7 y       0.341705  0.073899 -0.131063 -0.049420  0.265727  0.002918
     7 z      -0.030370 -0.277363  0.095868  0.197149 -0.012776  0.037892
     8 x       0.089805  0.278517 -0.145653 -0.006914  0.062528  0.159937
     8 y      -0.464382  0.081410  0.272326  0.044038 -0.260502  0.049710
     8 z       0.028390 -0.028996 -0.005476  0.154664  0.022191  0.208776
     9 x      -0.384869 -0.146778  0.236776 -0.136231 -0.056001  0.049413
     9 y      -0.041409  0.140523  0.082104  0.182189  0.097392  0.078210
     9 z       0.255541 -0.224036  0.180941 -0.406900  0.173018 -0.117362
    10 x       0.291992 -0.086451 -0.156358 -0.060897  0.000623  0.093060
    10 y       0.125663 -0.178135  0.075775 -0.274153  0.058184 -0.063640
    10 z      -0.143120 -0.310460 -0.053881 -0.376428 -0.210552 -0.092227
    11 x       0.081804 -0.294782  0.011696  0.491841  0.012856 -0.337741
    11 y      -0.022468 -0.036408  0.142869  0.096890  0.079209 -0.045993
    11 z       0.025834 -0.077007  0.008127  0.238638  0.018926 -0.489593
    12 x      -0.145968 -0.013850 -0.041960 -0.114445  0.005098 -0.141965
    12 y       0.266058  0.146407  0.389506 -0.008010 -0.178416 -0.036374
    12 z      -0.092129  0.329842 -0.058327  0.022685 -0.009040 -0.115750


  Frequency     229.9335  260.3803  262.9580  279.6843  316.9845  372.3114
  IR Intensity    0.0225    0.0804    0.0252    0.0161    0.0090    0.0073
     in X         0.0005    0.0144    0.0005    0.0129    0.0005    0.0059
     in Y         0.0220    0.0000    0.0227    0.0016    0.0000    0.0002
     in Z         0.0000    0.0660    0.0019    0.0016    0.0084    0.0012
  Raman Intsty    0.0006    0.0237    0.0001    0.0739    0.1177    0.4902

     1 x       0.062400  0.037724 -0.015297  0.009547 -0.002857 -0.271479
     1 y      -0.232184 -0.013964  0.119401 -0.003978 -0.011130 -0.053403
     1 z       0.001213 -0.216357 -0.032724  0.044970 -0.204548  0.038722
     2 x      -0.012500  0.284163 -0.060051 -0.325839  0.041333  0.109426
     2 y       0.016212  0.009663  0.341732 -0.109083  0.013861  0.018774
     2 z       0.003381 -0.176203 -0.040405 -0.174282  0.353008 -0.146798
     3 x      -0.099081 -0.035454 -0.000568  0.042683  0.044769  0.332833
     3 y       0.525394 -0.006183 -0.002115  0.010929  0.013378  0.066509
     3 z       0.006116 -0.193053 -0.038244 -0.085644 -0.006884  0.025309
     4 x       0.070818 -0.288194 -0.061375 -0.134583 -0.033030 -0.057147
     4 y      -0.491851 -0.055134 -0.021854 -0.026067 -0.006227 -0.014285
     4 z       0.004079 -0.114277 -0.018740 -0.025645  0.016975  0.199964
     5 x      -0.342323 -0.031352  0.014585  0.019764  0.000369  0.147639
     5 y       0.100904  0.004889  0.099471 -0.041885 -0.045623 -0.450797
     5 z      -0.117616  0.344526  0.231176  0.352145  0.144884 -0.032512
     6 x       0.295748 -0.007767 -0.056309  0.005727 -0.005214 -0.043746
     6 y       0.220066 -0.058113  0.080833  0.031569  0.022457  0.476117
     6 z       0.123997  0.400375 -0.052049  0.363944  0.165684 -0.019730
     7 x       0.014777  0.013448  0.158236 -0.123279  0.408580 -0.050034
     7 y      -0.115759  0.112641 -0.537114  0.007178  0.113108 -0.014440
     7 z       0.015862  0.256018  0.009386 -0.553990 -0.258262  0.111093
     8 x      -0.019648  0.159327  0.079545  0.016116 -0.614506 -0.186706
     8 y       0.105136  0.073343 -0.383939  0.034130 -0.111280 -0.036451
     8 z       0.005812 -0.271126 -0.020099  0.059749  0.027340 -0.161987
     9 x       0.040598 -0.272543  0.125388  0.234405 -0.048497 -0.012090
     9 y       0.011178 -0.062141  0.199252 -0.212969  0.200042 -0.047144
     9 z       0.006162  0.085922  0.318616 -0.013349 -0.061961  0.012397
    10 x      -0.026528 -0.202620 -0.235361  0.128754  0.073493 -0.035323
    10 y      -0.003181 -0.080804  0.079408  0.290029 -0.220693  0.038748
    10 z      -0.011084  0.169159 -0.297128 -0.015181  0.000698  0.005430
    11 x       0.042979  0.062415  0.016938  0.163806 -0.007145  0.183556
    11 y      -0.279581  0.021184 -0.022842  0.034337 -0.000055  0.042546
    11 z      -0.030291 -0.103345 -0.028244  0.031546 -0.074362 -0.264782
    12 x      -0.017813  0.225962  0.048819  0.015332  0.126750 -0.149656
    12 y       0.084370  0.056627 -0.040199  0.005383  0.029074 -0.032285
    12 z      -0.009684 -0.069414 -0.010202  0.056931 -0.129705  0.248754


  Frequency     467.4994  483.5297  489.3405  523.5816  575.6115  585.2643
  IR Intensity    0.0228    0.0380    0.0434    0.0210    0.0288    0.0606
     in X         0.0025    0.0374    0.0000    0.0100    0.0155    0.0026
     in Y         0.0001    0.0001    0.0434    0.0002    0.0002    0.0579
     in Z         0.0202    0.0006    0.0000    0.0108    0.0131    0.0000
  Raman Intsty    2.1172    3.4323    0.1002    0.0969    0.2035    0.0008

     1 x      -0.009714 -0.040110 -0.036309 -0.140022 -0.040070 -0.143299
     1 y      -0.001267 -0.027647  0.116935 -0.020777  0.005665  0.638314
     1 z      -0.150483 -0.055869 -0.011154 -0.019729 -0.029340 -0.009508
     2 x      -0.274210 -0.095032 -0.015774 -0.134387 -0.304883  0.010718
     2 y      -0.043867 -0.014137 -0.002416 -0.021268 -0.053640 -0.004461
     2 z       0.387486  0.152727  0.024744  0.194260  0.323065 -0.009840
     3 x       0.110560 -0.282190  0.079843  0.029426 -0.005816 -0.038967
     3 y       0.009709  0.072693 -0.628500  0.011065  0.005087  0.178420
     3 z       0.027588 -0.049707 -0.018734  0.004546  0.001565  0.002465
     4 x       0.045509 -0.098185 -0.023320  0.022199  0.001252  0.008246
     4 y       0.007899 -0.018807  0.010647  0.002757 -0.000617 -0.032755
     4 z       0.118647 -0.328480 -0.066774  0.092065  0.002903  0.005472
     5 x      -0.297393  0.494229 -0.417128  0.157703  0.035975 -0.180020
     5 y      -0.256125 -0.305709  0.098873  0.308315  0.015159 -0.481516
     5 z      -0.018953  0.009962 -0.010192  0.016909 -0.009696 -0.022445
     6 x      -0.353364  0.186327  0.464960  0.266635  0.053613  0.354332
     6 y       0.128237  0.339823  0.402720 -0.233592 -0.017677 -0.378140
     6 z      -0.016412  0.012698  0.024822  0.012931 -0.008281  0.014725
     7 x      -0.089075 -0.037631 -0.008239 -0.169115  0.466942 -0.003043
     7 y      -0.025074 -0.015918  0.012619 -0.047815  0.127095 -0.023692
     7 z      -0.069443 -0.027798 -0.004306 -0.117965  0.256240 -0.003560
     8 x       0.445716  0.140688  0.012650  0.017611  0.095265  0.008833
     8 y       0.077745  0.019206  0.024901 -0.010688  0.012047 -0.020260
     8 z      -0.141781 -0.080966 -0.016533 -0.618623 -0.238132  0.028073
     9 x       0.029122  0.012941  0.001035  0.018028 -0.009930  0.003468
     9 y       0.189230  0.101760  0.014936  0.202551 -0.423889  0.014970
     9 z       0.046902  0.025597  0.001182  0.079225 -0.175318  0.007443
    10 x       0.114610  0.058341  0.011847  0.107488 -0.202628 -0.004425
    10 y      -0.149084 -0.080985 -0.014622 -0.157687  0.345326  0.001822
    10 z       0.069889  0.036902  0.009075  0.100683 -0.225652 -0.003315
    11 x       0.098596 -0.301885 -0.072078  0.073501  0.003066  0.011080
    11 y       0.023029 -0.076674  0.025128  0.016108 -0.000278 -0.017827
    11 z      -0.110458  0.340606  0.071460 -0.079470 -0.016184 -0.006968
    12 x       0.212868  0.042483 -0.002808 -0.202120 -0.025563  0.005953
    12 y       0.046357  0.000472  0.037279 -0.043033 -0.006057 -0.030538
    12 z      -0.193688 -0.044708 -0.002604  0.300850  0.062240  0.000694


  Frequency     692.3970  732.9540  774.3659  794.9450  798.9261  837.9399
  IR Intensity    0.0893    0.0095    0.0079    0.0121    0.0040    0.0001
     in X         0.0659    0.0003    0.0002    0.0038    0.0015    0.0000
     in Y         0.0033    0.0001    0.0002    0.0014    0.0021    0.0000
     in Z         0.0201    0.0090    0.0075    0.0069    0.0004    0.0001
  Raman Intsty    0.0014    0.0105    0.0215    0.1077    0.0231    0.7158

     1 x      -0.363055 -0.147742 -0.329496  0.265252  0.063109  0.533889
     1 y      -0.090062 -0.041091 -0.075144  0.055858  0.000454  0.111676
     1 z      -0.230687 -0.501222 -0.175278 -0.409480 -0.174693 -0.133075
     2 x      -0.055306 -0.250308  0.397893  0.089851  0.263638  0.072196
     2 y      -0.013849 -0.075549  0.192246  0.304143 -0.638465  0.010423
     2 z      -0.032883 -0.198978  0.419691  0.145730  0.147151  0.065234
     3 x      -0.475504  0.230534  0.085696  0.117236  0.059731 -0.507256
     3 y      -0.100407  0.043919  0.011557  0.031504  0.011787 -0.112136
     3 z      -0.205041  0.282242  0.285590 -0.425531 -0.141434  0.324806
     4 x       0.144563 -0.107847 -0.068718  0.072622  0.021941 -0.010128
     4 y       0.024235 -0.017488 -0.010769  0.011049  0.004296 -0.000355
     4 z       0.439267 -0.323277 -0.228662  0.267233  0.083855 -0.106929
     5 x       0.199559 -0.009994  0.049706 -0.059510 -0.017122 -0.019206
     5 y       0.066832  0.078854  0.088166 -0.047258 -0.001609 -0.137416
     5 z       0.014203  0.004909 -0.001235  0.015401  0.008359 -0.009628
     6 x       0.196997  0.010698  0.072550 -0.073134 -0.022527 -0.064693
     6 y       0.033413 -0.070142 -0.056762  0.016588  0.005655  0.120313
     6 z       0.013204  0.003118 -0.001603  0.018387  0.003869 -0.006415
     7 x       0.072020  0.225110 -0.323240 -0.103597 -0.074785 -0.046063
     7 y       0.019211  0.061552 -0.093251 -0.039044  0.005437 -0.012624
     7 z       0.033563  0.121313 -0.198164 -0.065693 -0.044425 -0.045603
     8 x       0.145188  0.150947  0.082538  0.042765  0.019514 -0.038781
     8 y       0.033994  0.036210  0.015176  0.001012  0.025501 -0.008485
     8 z       0.303296  0.307409  0.153521  0.103028  0.056231 -0.060242
     9 x       0.004620  0.018225 -0.026018 -0.020866  0.004592 -0.006055
     9 y       0.034329  0.145619 -0.255247 -0.232153  0.367510 -0.018561
     9 z       0.008012  0.059478 -0.110133 -0.086191  0.123303 -0.007296
    10 x       0.021791  0.083025 -0.098885  0.031161 -0.230487 -0.019465
    10 y      -0.030837 -0.112939  0.130227 -0.079298  0.373631  0.022568
    10 z       0.014942  0.077768 -0.099958  0.036703 -0.218638 -0.014729
    11 x       0.219558  0.025976  0.079038 -0.213532 -0.078849  0.273190
    11 y       0.049146  0.005619  0.018490 -0.047827 -0.017118  0.061361
    11 z      -0.208274 -0.025707 -0.098117  0.221963  0.079328 -0.275576
    12 x       0.060869 -0.196522  0.049407 -0.238763 -0.082817 -0.186568
    12 y       0.013150 -0.040626  0.010656 -0.049600 -0.017071 -0.038672
    12 z      -0.059799  0.273044 -0.047220  0.310542  0.109473  0.220209




--------------------------------------------------------------------------------
  Vibrational properties (for cluster):  Temperature  =       0.000 K
--------------------------------------------------------------------------------
  Zero point energy            =        0.689151 eV
--------------------------------------------------------------------------------

  Phonon density of states : 

--------------------------------------------------------------------------------
 Frequency (cm-1) Density of States                                             
--------------------------------------------------------------------------------
    0.00000 |************************************************************  0.143
   13.09281 |                                                              0.000
   26.18562 |************                                                  0.029
   39.27843 |************                                                  0.029
   52.37124 |************                                                  0.029
   65.46406 |************                                                  0.029
   78.55687 |                                                              0.000
   91.64968 |                                                              0.000
  104.74249 |************                                                  0.029
  117.83530 |                                                              0.000
  130.92811 |                                                              0.000
  144.02092 |************                                                  0.029
  157.11373 |                                                              0.000
  170.20655 |************************                                      0.057
  183.29936 |************                                                  0.029
  196.39217 |************************                                      0.057
  209.48498 |                                                              0.000
  222.57779 |************************                                      0.057
  235.67060 |                                                              0.000
  248.76341 |************                                                  0.029
  261.85622 |************                                                  0.029
  274.94903 |************                                                  0.029
  288.04185 |                                                              0.000
  301.13466 |                                                              0.000
  314.22747 |************                                                  0.029
  327.32028 |                                                              0.000
  340.41309 |                                                              0.000
  353.50590 |                                                              0.000
  366.59871 |************                                                  0.029
  379.69152 |                                                              0.000
  392.78434 |                                                              0.000
  405.87715 |                                                              0.000
  418.96996 |                                                              0.000
  432.06277 |                                                              0.000
  445.15558 |                                                              0.000
  458.24839 |************                                                  0.029
  471.34120 |************                                                  0.029
  484.43401 |************                                                  0.029
  497.52682 |                                                              0.000
  510.61964 |************                                                  0.029
  523.71245 |                                                              0.000
  536.80526 |                                                              0.000
  549.89807 |                                                              0.000
  562.99088 |************                                                  0.029
  576.08369 |************                                                  0.029
  589.17650 |                                                              0.000
  602.26931 |                                                              0.000
  615.36213 |                                                              0.000
  628.45494 |                                                              0.000
  641.54775 |                                                              0.000
  654.64056 |                                                              0.000
  667.73337 |                                                              0.000
  680.82618 |************                                                  0.029
  693.91899 |                                                              0.000
  707.01180 |                                                              0.000
  720.10461 |************                                                  0.029
  733.19743 |                                                              0.000
  746.29024 |                                                              0.000
  759.38305 |                                                              0.000
  772.47586 |************                                                  0.029
  785.56867 |************                                                  0.029
  798.66148 |************                                                  0.029
  811.75429 |                                                              0.000
  824.84710 |************                                                  0.029
--------------------------------------------------------------------------------



  Time to end of optimisation =       0.0326 seconds


  Peak dynamic memory used =       0.65 MB 


  Timing analysis for GULP :

--------------------------------------------------------------------------------
  Task / Subroutine                                          Time (Seconds)
--------------------------------------------------------------------------------
  Calculation of real space energy and derivatives                0.0021
  Calculation of phonons                                          0.0017
  Calculation and manipulation of Hessian matrix                  0.0015
--------------------------------------------------------------------------------
  Total CPU time                                                  0.0326
--------------------------------------------------------------------------------


  Job Finished at 14:39.03 25th May        2022                               

